-2.003776054894691915e+05
-2.003736891652421036e+05
-2.003747827205797948e+05
-2.003760303368443856e+05
-2.003744152404922061e+05
-2.003733656628335011e+05
-2.003741877344058012e+05
-2.003751753086119134e+05
-2.003753298389351985e+05
-2.003758004605103924e+05
-2.003752119609862857e+05
-2.003760878025263955e+05
-2.003724496307588124e+05
-2.003736289373323962e+05
-2.003761160020923126e+05
-2.003782909343125939e+05
-2.003751014282063115e+05
-2.003767961265658960e+05
-2.003756802981657092e+05
-2.003760816553386103e+05
-2.003760196328381135e+05
-2.003739501591548033e+05
-2.003775322894843121e+05
-2.003776737730372115e+05
-2.003758117060232034e+05
-2.003772570505478943e+05
-2.003749215461245913e+05
-2.003753009543227090e+05
-2.003739976213877089e+05
-2.003756024099313945e+05
-2.003771665807217942e+05
-2.003770950395429099e+05
-2.003765254271686135e+05
-2.003737954810737865e+05
-2.003765397781807114e+05
-2.003769321547803120e+05
-2.003749073563400016e+05
-2.003744344672400912e+05
-2.003746934456056042e+05
-2.003775241017148073e+05
-2.003744941041186103e+05
-2.003736246373894101e+05
-2.003751522915902024e+05
-2.003756519819989917e+05
-2.003752177597323025e+05
-2.003748277864420961e+05
-2.003726585039856145e+05
-2.003735086269578023e+05
-2.003774112456268922e+05
-2.003731034762458003e+05
-2.003732754493386892e+05
-2.003761041137106076e+05
-2.003742064897165110e+05
-2.003749611230425071e+05
-2.003746691046140040e+05
-2.003753362571483885e+05
-2.003752011437806068e+05
-2.003723717257893877e+05
-2.003774242925333092e+05
-2.003768238434017985e+05
-2.003741972088656912e+05
-2.003774123029251932e+05
-2.003779806585416954e+05
-2.003782525459880126e+05
-2.003761076950008865e+05
-2.003734111529214133e+05
-2.003750035213727970e+05
-2.003753695438826107e+05
-2.003748150585890980e+05
-2.003736905375121860e+05
-2.003756798724436085e+05
-2.003712376205908076e+05
-2.003785187330573972e+05
-2.003745926400792960e+05
-2.003737111502721091e+05
-2.003737007700813119e+05
-2.003755407096137060e+05
-2.003760147807761095e+05
-2.003770116182816855e+05
-2.003765072276504943e+05
-2.003751289838149096e+05
-2.003735505523543106e+05
-2.003738960746233060e+05
-2.003730987070424890e+05
-2.003786202576445066e+05
-2.003740296694597928e+05
-2.003730822825230134e+05
-2.003765710886881861e+05
-2.003775973785718088e+05
-2.003758961611808918e+05
-2.003741065088312898e+05
-2.003768481722844008e+05
-2.003747420685401012e+05
-2.003748582193824113e+05
-2.003759522230277071e+05
-2.003747653895129042e+05
-2.003739530118603143e+05
-2.003762963919386093e+05
-2.003740367425149889e+05
-2.003735009168841061e+05
-2.003733664632563887e+05
-2.003758142037561920e+05
-2.003769287405679061e+05
-2.003741973966243095e+05
-2.003768337033109856e+05
-2.003745647718120017e+05
-2.003727897956504894e+05
-2.003757208903403953e+05
-2.003770747662450885e+05
-2.003749352874656033e+05
-2.003761909602048108e+05
-2.003772644936779107e+05
-2.003739408729978022e+05
-2.003726050493977091e+05
-2.003729200555956922e+05
-2.003771630416091066e+05
-2.003758681178083061e+05
-2.003746175051621976e+05
-2.003748941799073073e+05
-2.003741004846389114e+05
-2.003729794385918940e+05
-2.003751413045855879e+05
-2.003743598460046051e+05
-2.003778443924997118e+05
-2.003756928162189142e+05
-2.003733077198638057e+05
-2.003763995151944982e+05
-2.003746255827255955e+05
-2.003741770464543079e+05
-2.003735197157330986e+05
-2.003738087622702878e+05
-2.003741847460515855e+05
-2.003767942027210083e+05
-2.003744518408928125e+05
-2.003746669017164095e+05
-2.003772153541352018e+05
-2.003763502413636888e+05
-2.003750774186493945e+05
-2.003748231599625142e+05
-2.003735944222761900e+05
-2.003766460725152865e+05
-2.003761099804851110e+05
-2.003762321009610023e+05
-2.003731619794979924e+05
-2.003731302889834915e+05
-2.003736816332669114e+05
-2.003733443704693927e+05
-2.003747369196019135e+05
-2.003741391434447141e+05
-2.003753738066820952e+05
-2.003753164906626043e+05
-2.003762865016887081e+05
-2.003732413029967865e+05
-2.003735034728494938e+05
-2.003744999030006002e+05
-2.003754279472689959e+05
-2.003755750214007858e+05
-2.003744670044367958e+05
-2.003749487418626086e+05
-2.003734312832232972e+05
-2.003746097063793859e+05
-2.003730475601161015e+05
-2.003774301193071005e+05
-2.003766518863636884e+05
-2.003746809329946118e+05
-2.003761884666896076e+05
-2.003772884520773950e+05
-2.003738648865671130e+05
-2.003724703583506052e+05
-2.003723444146752008e+05
-2.003779159504135896e+05
-2.003778259148811921e+05
-2.003753989187082916e+05
-2.003736251670590136e+05
-2.003754177615036024e+05
-2.003730109352252039e+05
-2.003752935954119021e+05
-2.003736797083335987e+05
-2.003778224488311098e+05
-2.003744499378646142e+05
-2.003748639269703126e+05
-2.003741039819821017e+05
-2.003757127150880988e+05
-2.003768984084457916e+05
-2.003744584079523047e+05
-2.003769850255481142e+05
-2.003775512237098883e+05
-2.003758801783020899e+05
-2.003750359806088964e+05
-2.003763042977981968e+05
-2.003735335766680946e+05
-2.003737747162022861e+05
-2.003737820574257057e+05
-2.003779391245809966e+05
-2.003730074022350891e+05
-2.003731514236576913e+05
-2.003769072839831060e+05
-2.003730261104700912e+05
-2.003744007293411123e+05
-2.003741670062697085e+05
-2.003763878902189026e+05
-2.003774660616003966e+05
-2.003761019523103023e+05
-2.003780963002589997e+05
-2.003752966571007855e+05
-2.003766937023703940e+05
-2.003745518757925893e+05
-2.003763191474589112e+05
-2.003777015466089069e+05
-2.003742508717568126e+05
-2.003743771246896067e+05
-2.003732819102737121e+05
-2.003742533422783890e+05
-2.003751526949990075e+05
-2.003737321102491114e+05
-2.003773654377101047e+05
-2.003768454919630021e+05
-2.003741018282010045e+05
-2.003747743408338865e+05
-2.003738908316697925e+05
-2.003779852908717003e+05
-2.003763741645244882e+05
-2.003737907480616122e+05
-2.003761683606056904e+05
-2.003767630916729977e+05
-2.003774302880176983e+05
-2.003764642327105103e+05
-2.003750278433164931e+05
-2.003764242866701970e+05
-2.003769683641534066e+05
-2.003742379727441876e+05
-2.003777104354797048e+05
-2.003745372325303033e+05
-2.003736738882265927e+05
-2.003741178157058021e+05
-2.003776840124090959e+05
-2.003733468911960081e+05
-2.003737336300050083e+05
-2.003772951504318044e+05
-2.003744822358732054e+05
-2.003744391509997076e+05
-2.003754985280220862e+05
-2.003754664901543001e+05
-2.003756545751079102e+05
-2.003769563231157081e+05
-2.003779791412348859e+05
-2.003722694771073875e+05
-2.003767583596131881e+05
-2.003759317298619135e+05
-2.003740316949392145e+05
-2.003770987861423928e+05
-2.003766091497958987e+05
-2.003745343168305117e+05
-2.003756073713832011e+05
-2.003748741170896101e+05
-2.003750090587534942e+05
-2.003753057904659945e+05
-2.003724856726457074e+05
-2.003749563108452130e+05
-2.003771472972380870e+05
-2.003747163186791004e+05
-2.003739491558710870e+05
-2.003741114701468905e+05
-2.003774906182422128e+05
-2.003753599212568079e+05
-2.003767738903748977e+05
-2.003774092273584974e+05
-2.003736060167750984e+05
-2.003756533893717860e+05
-2.003752257118512061e+05
-2.003774559886261122e+05
-2.003762249416456907e+05
-2.003735475788302138e+05
-2.003742278510615870e+05
-2.003752087411991961e+05
-2.003748906942651083e+05
-2.003736678383194958e+05
-2.003743285912805004e+05
-2.003745489017243963e+05
-2.003742054313296976e+05
-2.003770784045433102e+05
-2.003758554500924947e+05
-2.003730717525334912e+05
-2.003754135061872948e+05
-2.003743373292642063e+05
-2.003770375018866907e+05
-2.003738486979703011e+05
-2.003748725695780886e+05
-2.003730503562219092e+05
-2.003733166340411990e+05
-2.003763498881598935e+05
-2.003714541391282110e+05
-2.003769261601123144e+05
-2.003774017823236936e+05
-2.003724094894767040e+05
-2.003757856327549089e+05
-2.003747433593120950e+05
-2.003743480640194030e+05
-2.003777796582485898e+05
-2.003749899914643029e+05
-2.003750241700517072e+05
-2.003763866413524083e+05
-2.003770076926313050e+05
-2.003764489016803855e+05
-2.003784910618005088e+05
-2.003720353702194116e+05
-2.003764571886355116e+05
-2.003772752711549110e+05
-2.003751099797920906e+05
-2.003740717809821072e+05
-2.003756718301190122e+05
-2.003742722204485035e+05
-2.003757309961043939e+05
-2.003747777682438900e+05
-2.003780373737337941e+05
-2.003732662635915913e+05
-2.003752053343337902e+05
-2.003740958572069067e+05
-2.003773140007102920e+05
-2.003779773312695906e+05
-2.003763582283132127e+05
-2.003791486077638110e+05
-2.003735496145139041e+05
-2.003764066898841993e+05
-2.003752936518754868e+05
-2.003777528565315879e+05
-2.003752794733835908e+05
-2.003779924296424142e+05
-2.003739750352583069e+05
-2.003746168960354116e+05
-2.003780414695914078e+05
-2.003761677619552938e+05
-2.003782395796272031e+05
-2.003743695068625093e+05
-2.003743130914038047e+05
-2.003770734644524928e+05
-2.003773977953116118e+05
-2.003766635954224912e+05
-2.003760751496407902e+05
-2.003770713863190031e+05
-2.003734165613201039e+05
-2.003770852148724953e+05
-2.003739350279924111e+05
-2.003728560810865019e+05
-2.003742150184446946e+05
-2.003749018626335892e+05
-2.003778099223423051e+05
-2.003747062130511040e+05
-2.003761876740219013e+05
-2.003771763806297968e+05
-2.003742858865500020e+05
-2.003750098051617970e+05
-2.003760656959977059e+05
-2.003748071983086120e+05
-2.003755975970538857e+05
-2.003748194098256063e+05
-2.003743536815376137e+05
-2.003733726145259861e+05
-2.003750377794174128e+05
-2.003769027798186871e+05
-2.003725740878761862e+05
-2.003751346454155864e+05
-2.003743595639585983e+05
-2.003773542613142054e+05
-2.003726241438983125e+05
-2.003744281665800954e+05
-2.003767276865323947e+05
-2.003746959704138862e+05
-2.003770036442576093e+05
-2.003763956246468006e+05
-2.003748573555570038e+05
-2.003756559755417984e+05
-2.003751534491624916e+05
-2.003733336148975941e+05
-2.003758876795283868e+05
-2.003772032867025118e+05
-2.003762403646502935e+05
-2.003759063994644093e+05
-2.003730629405347863e+05
-2.003738233596814098e+05
-2.003777767893524142e+05
-2.003768096523926943e+05
-2.003746152311068145e+05
-2.003733526235462923e+05
-2.003756887483891041e+05
-2.003774835357991105e+05
-2.003737963583687961e+05
-2.003765381640013948e+05
-2.003742179240763944e+05
-2.003746221064711863e+05
-2.003757169704044063e+05
-2.003753802934680134e+05
-2.003749170150209102e+05
-2.003771819869912870e+05
-2.003762746628317109e+05
-2.003746956685036130e+05
-2.003763911105502048e+05
-2.003739355539884127e+05
-2.003779506911881908e+05
-2.003759284412300040e+05
-2.003751676043886982e+05
-2.003762579086461919e+05
-2.003749907380086079e+05
-2.003738479887055000e+05
-2.003744682157516072e+05
-2.003754796552942134e+05
-2.003754288651089882e+05
-2.003748475580980885e+05
-2.003763803123926045e+05
-2.003734812041409023e+05
-2.003728836127489922e+05
-2.003740024477349943e+05
-2.003772935177487961e+05
-2.003775576076367870e+05
-2.003765490246092086e+05
-2.003756117556813988e+05
-2.003745108682361897e+05
-2.003761980985673144e+05
-2.003762934188226936e+05
-2.003764451137197029e+05
-2.003743250142078905e+05
-2.003777418910239066e+05
-2.003737987835835083e+05
-2.003776058422648057e+05
-2.003755560833656928e+05
-2.003752119164956966e+05
-2.003754407564841094e+05
-2.003780947624075925e+05
-2.003742142143482924e+05
-2.003780782487707911e+05
-2.003770707984170876e+05
-2.003770702041203913e+05
-2.003755643198436010e+05
-2.003767662628876860e+05
-2.003742502442621917e+05
-2.003758209584382130e+05
-2.003743699531292077e+05
-2.003734226998003141e+05
-2.003743299492645892e+05
-2.003774102574453864e+05
-2.003749358687007916e+05
-2.003735727945317922e+05
-2.003754327997392102e+05
-2.003767355798748031e+05
-2.003738820140927855e+05
-2.003768231623008905e+05
-2.003780846242620901e+05
-2.003765164041456883e+05
-2.003761606795121916e+05
-2.003753276948140992e+05
-2.003753024320369004e+05
-2.003754703438305878e+05
-2.003763284990593093e+05
-2.003744388624228886e+05
-2.003722910712457960e+05
-2.003725150712812901e+05
-2.003733193798059947e+05
-2.003739507269203896e+05
-2.003768255232966912e+05
-2.003781687322026119e+05
-2.003772155481523951e+05
-2.003755414941179042e+05
-2.003733745723849861e+05
-2.003783040206755977e+05
-2.003770892546745890e+05
-2.003734815732632997e+05
-2.003754637686077040e+05
-2.003771954880557896e+05
-2.003755215839561133e+05
-2.003742756581986905e+05
-2.003750305984691076e+05
-2.003747500861024018e+05
-2.003732065857601119e+05
-2.003754322801377857e+05
-2.003761152710584865e+05
-2.003764547726727033e+05
-2.003734902500213939e+05
-2.003751203896432999e+05
-2.003768302869216132e+05
-2.003751063413578959e+05
-2.003769913206296915e+05
-2.003740399107364065e+05
-2.003743535488820926e+05
-2.003752355027795129e+05
-2.003748632828769041e+05
-2.003756487544566917e+05
-2.003765406226860068e+05
-2.003746490900965000e+05
-2.003733939260740881e+05
-2.003752725652293884e+05
-2.003746863231617899e+05
-2.003759421348150063e+05
-2.003732017734266992e+05
-2.003773659378553857e+05
-2.003741560049791005e+05
-2.003771347670757968e+05
-2.003740115962024138e+05
-2.003735555415615963e+05
-2.003776200336820912e+05
-2.003735248589568946e+05
-2.003748282721652940e+05
-2.003756030344326864e+05
-2.003741119398155133e+05
-2.003782519010782125e+05
-2.003756118586765078e+05
-2.003743354523589951e+05
-2.003772224039247085e+05
-2.003757774297469878e+05
-2.003746242929059954e+05
-2.003723979176993889e+05
-2.003761751097094093e+05
-2.003747497909948870e+05
-2.003765466559941997e+05
-2.003726530502799142e+05
-2.003760066063402046e+05
-2.003766316025895067e+05
-2.003753013526973082e+05
-2.003772291844575084e+05
-2.003728944801595935e+05
-2.003780835415211041e+05
-2.003742080402211868e+05
-2.003759264005121950e+05
-2.003759880733464961e+05
-2.003752101232653949e+05
-2.003738289459065127e+05
-2.003750593154595117e+05
-2.003758169614940125e+05
-2.003744499959608947e+05
-2.003757909676828131e+05
-2.003731879093623138e+05
-2.003751602262938977e+05
-2.003747315419520892e+05
-2.003726191059825942e+05
-2.003771924314009957e+05
-2.003739671325279924e+05
-2.003755484741101100e+05
-2.003760934788211889e+05
-2.003750468284272938e+05
-2.003754093242055969e+05
-2.003761318110903958e+05
-2.003736968178997922e+05
-2.003762328368927992e+05
-2.003758066856588121e+05
-2.003741117866153945e+05
-2.003770733060821949e+05
-2.003769097664777073e+05
-2.003758228430986055e+05
-2.003777187164482893e+05
-2.003774853774656076e+05
-2.003770758280332957e+05
-2.003751861198309925e+05
-2.003761370617992070e+05
-2.003746833267802140e+05
-2.003753954443586990e+05
-2.003755592635601934e+05
-2.003775561269292957e+05
-2.003750330670858966e+05
-2.003746628342946933e+05
-2.003784796339714085e+05
-2.003778802079879097e+05
-2.003744411424648133e+05
-2.003750502800554095e+05
-2.003756885097452032e+05
-2.003739404807456885e+05
-2.003755324678295874e+05
-2.003745326856439933e+05
-2.003771465989940043e+05
-2.003758258068265859e+05
-2.003753406332831946e+05
-2.003756164676047920e+05
-2.003744286641402869e+05
-2.003750212366644118e+05
-2.003784456295368145e+05
-2.003721468187985010e+05
-2.003738761285424989e+05
-2.003750663113704068e+05
-2.003775164496013895e+05
-2.003756004150648077e+05
-2.003767334519445139e+05
-2.003734714074982039e+05
-2.003749654700612009e+05
-2.003779808638516115e+05
-2.003739700995213934e+05
-2.003736974331492092e+05
-2.003737067916885135e+05
-2.003777285647924873e+05
-2.003762319489853980e+05
-2.003742097349462856e+05
-2.003746966470250045e+05
-2.003771098713800893e+05
-2.003747769346231071e+05
-2.003762104246442032e+05
-2.003765763406213955e+05
-2.003743971670987958e+05
-2.003765955558044952e+05
-2.003742598209008866e+05
-2.003764841239604866e+05
-2.003769114307260024e+05
-2.003739795643211983e+05
-2.003753433104752912e+05
-2.003784578737074917e+05
-2.003781681931449857e+05
-2.003747155177119130e+05
-2.003725870830809872e+05
-2.003760659019878949e+05
-2.003756261041084072e+05
-2.003759684898573032e+05
-2.003730712088499859e+05
-2.003736751338278118e+05
-2.003739382842427003e+05
-2.003750144055185083e+05
-2.003773757355865091e+05
-2.003750148155940115e+05
-2.003735151998678048e+05
-2.003735264550406137e+05
-2.003750158753413998e+05
-2.003774077918218973e+05
-2.003757792462428915e+05
-2.003758512657978863e+05
-2.003747314405895886e+05
-2.003762599960314983e+05
-2.003749460252140125e+05
-2.003751826239844086e+05
-2.003750002256660082e+05
-2.003745933175066893e+05
-2.003767519250731857e+05
-2.003770594101804891e+05
-2.003750327749717108e+05
-2.003745370115739061e+05
-2.003769220649350027e+05
-2.003742855447749898e+05
-2.003736805850843957e+05
-2.003763901163823029e+05
-2.003773116073329875e+05
-2.003754918893967115e+05
-2.003727543265632121e+05
-2.003763987958614889e+05
-2.003765385086335882e+05
-2.003759573115565872e+05
-2.003738943276524951e+05
-2.003758910731963115e+05
-2.003743961859922856e+05
-2.003756699272267870e+05
-2.003725912464229041e+05
-2.003750373100211145e+05
-2.003776460015063058e+05
-2.003750134608751978e+05
-2.003775860448940948e+05
-2.003755923154602060e+05
-2.003784399811337062e+05
-2.003749429335925961e+05
-2.003779739302548114e+05
-2.003727926328454050e+05
-2.003736997712874145e+05
-2.003760503478244063e+05
-2.003766938606046024e+05
-2.003741458129549865e+05
-2.003738229662048107e+05
-2.003733600942957855e+05
-2.003732231109616987e+05
-2.003750620236725954e+05
-2.003755010683409055e+05
-2.003770858199175855e+05
-2.003751421701796935e+05
-2.003770911557979998e+05
-2.003762424920363119e+05
-2.003729682012425037e+05
-2.003742315130335919e+05
-2.003768685638156021e+05
-2.003739343690687092e+05
-2.003735288378054975e+05
-2.003744932102246094e+05
-2.003765578376963094e+05
-2.003761014465866901e+05
-2.003778272047007922e+05
-2.003711985598728934e+05
-2.003744363769351039e+05
-2.003731681982516893e+05
-2.003724477126282873e+05
-2.003749343979253899e+05
-2.003729776849542104e+05
-2.003773671917559113e+05
-2.003754783252018096e+05
-2.003727642038874910e+05
-2.003736185899313132e+05
-2.003745111195333011e+05
-2.003784648962854990e+05
-2.003750415450648870e+05
-2.003775815435868863e+05
-2.003775650285895099e+05
-2.003755052107298980e+05
-2.003772075610668107e+05
-2.003770091616378922e+05
-2.003755277288309007e+05
-2.003732745885066106e+05
-2.003778568366740074e+05
-2.003771517948718101e+05
-2.003763144254673098e+05
-2.003748617308755056e+05
-2.003775354397463088e+05
-2.003751081771739118e+05
-2.003756839624507993e+05
-2.003768934297148080e+05
-2.003776441688195919e+05
-2.003782211277234019e+05
-2.003742326432584960e+05
-2.003730215102494985e+05
-2.003751795858333935e+05
-2.003768546311786049e+05
-2.003743853233437112e+05
-2.003752029185071005e+05
-2.003739355850093998e+05
-2.003769956456072105e+05
-2.003738086483906081e+05
-2.003758093531907944e+05
-2.003757703675763041e+05
-2.003748252700694138e+05
-2.003730165716552874e+05
-2.003763996799594024e+05
-2.003755260039012064e+05
-2.003777605328630889e+05
-2.003769907177615096e+05
-2.003733622641316033e+05
-2.003757149649253988e+05
-2.003732245045927993e+05
-2.003742946405884868e+05
-2.003773893235913129e+05
-2.003775914942460076e+05
-2.003728826896027022e+05
-2.003781375123090111e+05
-2.003748298687933129e+05
-2.003778400518757117e+05
-2.003747224295396882e+05
-2.003783580853427120e+05
-2.003760579785768932e+05
-2.003738863046478073e+05
-2.003761925609144964e+05
-2.003742589128570107e+05
-2.003767713552261994e+05
-2.003736045530746924e+05
-2.003768382296526106e+05
-2.003743992033266986e+05
-2.003736634595996002e+05
-2.003761217932192085e+05
-2.003748287555756106e+05
-2.003730564791916113e+05
-2.003737503486796049e+05
-2.003730547360302880e+05
-2.003747933746532071e+05
-2.003776981605601904e+05
-2.003722691467611876e+05
-2.003773602648258966e+05
-2.003752093772653025e+05
-2.003732760278526985e+05
-2.003755581478934037e+05
-2.003718560361750133e+05
-2.003749069502101047e+05
-2.003740078195343958e+05
-2.003765544807639089e+05
-2.003735691808598931e+05
-2.003735559777600865e+05
-2.003752938311985054e+05
-2.003761552502966952e+05
-2.003768209683829919e+05
-2.003747723194361897e+05
-2.003771863115605956e+05
-2.003755689463232120e+05
-2.003744479442225129e+05
-2.003764980047598074e+05
-2.003772981450447114e+05
-2.003749139575498120e+05
-2.003758200346117083e+05
-2.003744930021935143e+05
-2.003731921407326008e+05
-2.003735828639685933e+05
-2.003776690836992930e+05
-2.003752368615799933e+05
-2.003749151592045091e+05
-2.003746560790684889e+05
-2.003759493616145046e+05
-2.003763233093039889e+05
-2.003747908725664020e+05
-2.003758686776825925e+05
-2.003729586760333914e+05
-2.003764811539739021e+05
-2.003754348136537010e+05
-2.003728271157921990e+05
-2.003747081473724102e+05
-2.003758051721616066e+05
-2.003768971394429100e+05
-2.003759955344359914e+05
-2.003750987446196086e+05
-2.003736809736629948e+05
-2.003774295402487915e+05
-2.003741434818918060e+05
-2.003749585674853879e+05
-2.003733585014773998e+05
-2.003757790750832937e+05
-2.003744307508452912e+05
-2.003763051797190856e+05
-2.003759604200490867e+05
-2.003732913670461858e+05
-2.003771821629129117e+05
-2.003762607948216901e+05
-2.003759218796128116e+05
-2.003765239740806865e+05
-2.003743491098888917e+05
-2.003737655875991913e+05
-2.003741884730588936e+05
-2.003757444522700971e+05
-2.003765099683811131e+05
-2.003737333478229120e+05
-2.003743122068977100e+05
-2.003776013295288139e+05
-2.003732087358676072e+05
-2.003750238134464889e+05
-2.003758532431132044e+05
-2.003767454969277896e+05
-2.003772391402866924e+05
-2.003771141064238909e+05
-2.003779859303392877e+05
-2.003730905553280900e+05
-2.003748023134568939e+05
-2.003751662442276138e+05
-2.003749629969545058e+05
-2.003780054468885064e+05
-2.003751398509533901e+05
-2.003770323223356972e+05
-2.003745281236553856e+05
-2.003740082328752906e+05
-2.003733994812782912e+05
-2.003747296447743138e+05
-2.003777011509553122e+05
-2.003745377219269867e+05
-2.003779667634564103e+05
-2.003728890931218048e+05
-2.003762875996681105e+05
-2.003782902398780861e+05
-2.003732036137325922e+05
-2.003766861826402892e+05
-2.003783523568020901e+05
-2.003762358340907958e+05
-2.003739313820750103e+05
-2.003732789220555860e+05
-2.003770932411424874e+05
-2.003744568107799860e+05
-2.003787077042858000e+05
-2.003785117966032994e+05
-2.003754368802222889e+05
-2.003767383127140929e+05
-2.003722591107944027e+05
-2.003754327794667042e+05
-2.003729087960690085e+05
-2.003723074486897094e+05
-2.003756509189862991e+05
-2.003742346472408972e+05
-2.003747381042494962e+05
-2.003778517769892060e+05
-2.003760233866485942e+05
-2.003754617096582951e+05
-2.003769860776762071e+05
-2.003745546601976093e+05
-2.003744055257558066e+05
-2.003760313569992140e+05
-2.003737030272656120e+05
-2.003738153282412968e+05
-2.003751326070106879e+05
-2.003769833577623067e+05
-2.003736109850296925e+05
-2.003753661281735986e+05
-2.003750683531766990e+05
-2.003741842344776087e+05
-2.003784800615982967e+05
-2.003740924512940110e+05
-2.003775004068574926e+05
-2.003720558311397035e+05
-2.003750144366754976e+05
-2.003711491714821022e+05
-2.003737847780199081e+05
-2.003770996379946882e+05
-2.003759013955628907e+05
-2.003743135587593133e+05
-2.003749425339933950e+05
-2.003760926290097123e+05
-2.003733342379021924e+05
-2.003760786328341055e+05
-2.003759198247450986e+05
-2.003760686088402872e+05
-2.003782608975700859e+05
-2.003757924772344122e+05
-2.003774916404378891e+05
-2.003763280922491103e+05
-2.003766793082283111e+05
-2.003747753487435984e+05
-2.003731358809231024e+05
-2.003771081061775913e+05
-2.003744887770818896e+05
-2.003756087545379123e+05
-2.003780309353841876e+05
-2.003738652536486916e+05
-2.003770634634523012e+05
-2.003756002829535864e+05
-2.003780660301788885e+05
-2.003772679329247912e+05
-2.003757509591924027e+05
-2.003758264130961907e+05
-2.003743128386099997e+05
-2.003753365349766100e+05
-2.003776900221793912e+05
-2.003757888121329888e+05
-2.003751601373126905e+05
-2.003738397146759089e+05
-2.003764546480446006e+05
-2.003737926226539130e+05
-2.003745733858477906e+05
-2.003748614974019001e+05
-2.003733281806480081e+05
-2.003718028832252894e+05
-2.003770123812890088e+05
-2.003735887429882132e+05
-2.003770043222291861e+05
-2.003768799252489116e+05
-2.003750999206955894e+05
-2.003756520327482140e+05
-2.003766811049960088e+05
-2.003755575168613868e+05
-2.003750078853986051e+05
-2.003749348956217000e+05
-2.003754749546636012e+05
-2.003781717702175956e+05
-2.003766812083992118e+05
-2.003774461349755875e+05
-2.003755242618283955e+05
-2.003773753770765034e+05
-2.003748885075582075e+05
-2.003744543505987967e+05
-2.003734982070384140e+05
-2.003780065697662067e+05
-2.003774456491163874e+05
-2.003742202543232997e+05
-2.003712578774256981e+05
-2.003739883519657014e+05
-2.003747326810205996e+05
-2.003754784001690859e+05
-2.003763123447487887e+05
-2.003742304251225141e+05
-2.003752930549937882e+05
-2.003741177967938129e+05
-2.003756905242041103e+05
-2.003732420673645975e+05
-2.003775581401635136e+05
-2.003739300560643023e+05
-2.003775942289901141e+05
-2.003760212340920116e+05
-2.003742900406399858e+05
-2.003759973876673030e+05
-2.003730942443755048e+05
-2.003766214463484066e+05
-2.003746945524286130e+05
-2.003768403920053097e+05
-2.003737170064341044e+05
-2.003776921897022112e+05
-2.003740737923115958e+05
-2.003774034084760060e+05
-2.003756373154709872e+05
-2.003774374359041976e+05
-2.003727993672548910e+05
-2.003743331866030931e+05
-2.003736207713320036e+05
-2.003748117838350881e+05
-2.003766114107898029e+05
-2.003757731318447914e+05
-2.003775081450949947e+05
-2.003769887920118053e+05
-2.003745721323553880e+05
-2.003740034168683924e+05
-2.003759673057539039e+05
-2.003728428685987019e+05
-2.003749425875997986e+05
-2.003725412536672957e+05
-2.003765627122076985e+05
-2.003737603351217113e+05
-2.003769959759534104e+05
-2.003772190381484979e+05
-2.003757865918200987e+05
-2.003733025593608036e+05
-2.003767876511719951e+05
-2.003745828714644013e+05
-2.003748478308921913e+05
-2.003762479461501061e+05
-2.003752492171812046e+05
-2.003758086622937990e+05
-2.003769568902009923e+05
-2.003745444586494996e+05
-2.003761210530695971e+05
-2.003755468587063078e+05
-2.003734806434503116e+05
-2.003757550188589084e+05
-2.003747650414792879e+05
-2.003775957517391944e+05
