0.518054 0.218982 0.251204 -0.164985 -0.039637 0.164489 -0.457721 0.227145 0.163140 0.028275 0.337689 0.021306 0.178277 -0.943567 -0.009993 0.716274 0.814848 -0.241393 -0.160062 -0.278107 0.894540 -0.461346 0.310838 -0.062991 0.273129 -0.178281 0.523968 0.612026 -0.734520 0.004879 0.347080 0.461100 -0.175813 0.003096 -0.383942 0.782127 -0.974911 -0.310145 0.702809 -0.071351 0.041202 -0.048297 0.278781 -0.279827 -0.284875 -0.608907 -0.605176 -1.196860 0.168518 0.094905 0.119337 -0.515456 0.589650 -0.466586 -0.023505 1.187908 -0.346154 0.088562 -0.793075 -0.436393 -1.078151 0.004370 0.492693 -0.156458 0.416705 -0.733457 0.929121 -0.565723 0.509006 0.817677 -0.103912 0.259799 -0.053106 0.611103 -0.281325 -0.421107 -0.307701 0.244350 -0.172278 0.425929 -0.452582 -0.439770 -0.948927 -0.052272 -0.539346 -0.163065 -0.000498 0.161178 0.060290 0.089065 0.172039 -0.462141 0.673639 0.088318 0.398903 -0.111935 -0.191275 -0.012245 -0.214920 -0.000980 -0.762389 1.160770 -0.029435 0.778899 0.815664 0.091371 -0.058929 0.502934 0.049778 -0.657103 -0.299923 0.600700 -0.083335 -0.785861 -1.046031 -0.060680 -0.359519 0.556781 0.284484 0.270174 -0.614283 1.177735 -0.652935 0.088669 0.144257 0.022067 0.796098 0.316915 -0.289666 -0.162116 0.340182 -0.618083 0.957521 0.123228 0.639052 0.165104 0.772637 -0.107108 0.023750 -0.213732 0.057928 0.156255 0.384318 -0.324315 -0.448694 -1.200726 0.238196 0.397074 0.429174 -0.137479 1.213171 0.008212 -0.024493 0.318209 0.010943 -0.074009 -1.048002 -0.276736 -0.108689 -0.175780 0.774714 0.333598 -0.319512 0.390629 0.206336 0.467573 -0.425186 -0.708911 0.849064 0.227289 0.304119 0.566458 -0.557621 -0.890301 -0.048964 -0.411230 -0.234576 -0.094540 0.139355 0.426009 0.000924 -0.237644 0.125358 0.167358 -0.029336 -0.219563 -0.439003 0.397443 0.107750 -1.073552 -0.396675 0.207822 0.146438 0.909171 -0.415691 0.356941 0.587226 0.243841 0.880954 0.229171 -0.518663 0.378608 0.128944 -0.594822 1.288643 0.422553 0.427941 0.465427 -1.058136 -0.326936 0.042700 -0.490642 -0.093592 -0.118034 0.290435 -0.311471 -0.073872 -0.855977 0.190561 -0.391366 0.603645 -0.235223 -0.829909 0.010837 0.444626 -0.134512 -0.091469 0.029851 -0.028842 -0.039006 -0.060101 0.002789 -0.041923 -1.034078 0.526373 -0.267457 -0.365500 -0.826310 0.579050 0.998433 -0.341427 -0.406256 0.267091 -0.190479 -1.492600 -0.591680 0.288371 0.144840 0.312153 -0.898184 0.951228 0.616073 0.705464 0.358349 0.001393 0.269753 -1.637892 -0.844085 -0.138345 0.126587 -0.034571 -0.686682 0.642504 0.076279 -0.112224 0.562928 -0.069914 -0.033349 -0.009787 0.034701 0.649337 0.333385 0.208180 -0.040132 -0.143062 -0.195200 -0.059835 -0.151207 0.220033 1.158706 -0.889437 0.149673 0.534635 -0.951723 -0.323723 -0.969142 0.751269 0.685732 -0.614662 0.384434 -0.149842 -1.398868 -0.200830 -0.117663 0.070929 -0.970755 -1.328293 0.626837 -0.531725 0.596939 -0.042819 -0.943890 -0.142201 -1.779127 0.309113 -0.270761 0.073344 0.171188 -0.239193 -0.361775 -0.424603 0.677222 0.842134 1.360700 0.223045 0.045366 0.187350 -0.195817 0.105204 -0.579832 -0.653836 0.534895 -0.156784 -0.050987 -0.421686 0.445158 0.237245 0.857915 -0.002086 0.246760 0.057212 0.225728 0.000339 0.238923 0.186005 0.185424 -0.380437 0.042434 0.053003 -1.209950 0.169180 0.675415 0.168195 0.506288 0.646193 0.089590 -0.192080 0.989116 -0.227118 0.357114 -0.727820 0.216201 -0.163573 -0.131977 -0.184123 0.549030 0.315405 0.015686 -0.253783 -0.091380 
-0.259167 -0.150183 -0.529392 0.304786 0.306702 0.102953 -0.271681 0.293468 0.117710 -0.040166 1.078562 0.464249 -0.065334 -0.521564 -0.107477 0.296441 0.816870 0.137111 -0.462159 0.219895 -0.017078 0.118315 -0.828677 0.260597 0.639376 0.343803 -0.705424 0.600513 -0.057822 -0.855759 -0.509919 0.309168 0.297484 1.011474 0.057395 0.935759 0.164214 -0.379341 -0.285565 0.339853 0.800031 0.011855 0.135159 0.199975 0.373379 -0.299156 -1.308681 -0.174374 0.182114 -0.205136 0.323115 0.301200 0.090389 -0.216192 -1.500852 -0.223694 0.151575 0.015608 0.329620 0.876832 -0.478138 0.080683 -0.148276 -0.546617 -0.223110 -1.069626 -0.163476 -0.271454 -0.069068 0.174395 0.468852 -0.338178 0.453566 0.063553 0.139732 -0.227705 0.247486 0.380820 -0.369239 0.208523 -0.075642 0.131686 -0.129914 0.345986 -0.912231 1.328087 -0.283735 0.115290 -0.082062 0.315377 -1.254759 -0.507176 -0.221831 -0.151523 0.215837 0.283258 0.783729 -0.244477 0.031057 -0.447024 -1.101029 0.157750 0.779760 0.641423 0.216916 0.630881 0.968994 0.212100 1.008301 0.055306 -0.288822 0.075133 0.005165 0.524876 -0.089417 0.853223 0.188948 -0.106897 -0.198496 -0.579934 -0.670622 -1.479610 -0.591819 -1.441524 0.619549 0.398326 -0.056621 0.542890 0.108425 0.359208 0.153002 -0.613595 0.768643 -0.350643 0.433040 -0.206531 0.534174 0.073609 0.079962 -0.087855 0.379765 -0.183768 0.391053 -0.777352 0.802168 0.211548 0.706835 -0.135062 0.280093 0.179604 -0.618654 -0.266222 0.212556 0.382625 -0.154386 -0.455418 -0.272637 0.096073 -0.978967 -0.359004 -0.043577 -0.233249 -0.188981 -0.448085 -0.404833 0.034843 0.527048 0.190676 0.539241 1.648604 0.645509 0.419500 -1.477680 -1.280837 0.465169 -0.300643 0.696239 0.009056 -0.116825 0.518769 1.194903 -0.491669 0.396165 -0.034265 0.070399 -0.108222 -0.419099 0.449260 -1.124931 -0.243862 -0.068473 0.832026 -0.218790 -0.361493 -0.095745 -0.161669 -0.091653 0.663577 0.724309 0.391672 -0.076697 -1.036326 0.008744 0.685733 -0.505589 0.086125 -0.229776 -0.028699 0.097148 -0.167038 -0.857279 -0.177960 -0.112564 1.504836 1.489087 -0.223166 0.651123 0.368562 -0.145617 -1.325535 -0.026160 -0.837849 0.119168 -0.577006 0.412655 -0.307731 0.420258 0.066269 -0.011425 0.109973 0.195175 0.543496 0.238248 -0.024580 0.036927 -0.312960 -0.325267 0.004468 0.131447 -0.309647 0.169073 -0.142234 -0.519762 0.363392 -0.305214 0.466741 -0.028702 -0.810309 0.164808 -0.954862 -0.662262 0.213724 -0.113167 -1.076102 0.256705 -1.270423 -0.224912 0.077475 -0.815352 1.279854 0.373100 -0.403774 -1.298651 -1.326827 -0.307394 1.705307 0.322643 -0.197037 -0.604022 -0.186042 -0.289981 -0.988319 -0.336141 -0.156456 0.137818 0.108111 0.654704 0.334653 0.106425 -0.615336 0.489908 0.337560 -0.174835 -1.096060 -0.078693 -0.184802 -0.515582 0.182394 -0.080592 -0.484436 -0.390010 0.939362 0.520225 1.006386 -0.407198 -0.743559 0.333438 0.596478 1.082544 -0.112050 0.624899 0.156078 0.016220 -0.156084 -0.534975 -0.606119 0.120334 -0.587152 0.164973 0.029055 0.436555 -0.379041 -0.559458 -1.046468 0.701663 -0.293517 0.547490 -0.026918 -0.358218 -0.089264 -0.417461 -0.449614 -0.014304 -0.072618 -0.285370 -0.001899 -0.333316 0.189875 -1.163060 -0.208996 -0.020663 -0.465478 -0.195461 0.553318 0.811609 0.177527 -0.378506 0.491905 0.672238 1.943760 -0.770521 0.698498 -0.021703 0.458612 -0.277142 1.965775 0.395937 -0.394820 0.033869 -0.665674 -0.950025 0.226735 -0.019696 0.312390 0.730562 -0.116886 0.438703 -0.080454 -0.003705 0.118874 
-0.429295 -0.690382 0.040342 0.129295 -0.285952 0.215124 0.296068 -0.038298 0.258866 -0.200142 1.527465 -0.132477 0.099756 0.115727 -0.409531 -0.182282 -0.871725 0.211583 -0.134709 0.924688 -0.305852 0.289554 -0.131800 -0.224364 -0.885577 0.049708 -0.343470 -0.859368 -0.497175 1.253836 1.483065 0.984892 -0.081483 0.789107 -0.614185 -0.324724 0.017589 -0.302530 -0.600669 -0.203760 -0.162413 -0.606289 -0.142328 0.079652 0.025019 0.520609 -0.099318 0.690675 0.255696 0.073904 -0.577853 0.373497 0.340231 -0.048353 -0.501774 -0.155650 -0.194842 0.204882 -0.121789 -0.150869 -0.272775 -0.597001 -0.587198 0.216986 -0.331293 1.287695 0.105621 -0.519412 -0.524308 0.444354 0.353733 0.198385 -0.578967 -0.139009 -0.252089 0.450892 0.689603 0.584461 0.239213 0.204669 -0.302101 0.778002 1.114114 -0.445729 0.481364 -0.191291 -0.295674 -0.135307 0.111013 0.098618 -0.689970 -0.173018 0.122325 0.025384 -0.081474 0.022754 0.124336 -0.293027 -0.033720 0.207582 0.177471 -0.398380 -0.034721 0.537838 -0.068689 0.665659 0.110917 0.592817 -0.306467 0.166643 -0.601388 0.776563 -0.966448 -0.464878 -2.085677 0.520483 0.566350 -0.440657 -0.132121 0.332965 0.409042 0.057760 -0.183610 0.765938 -1.914976 -0.267992 -0.003884 -0.289558 0.401364 0.852344 -0.099176 0.257630 -0.192986 0.727866 0.125626 -0.090060 -0.666521 -0.507935 -0.129087 -0.308912 -0.035807 -0.341737 0.020129 0.509773 0.299990 0.920968 -0.657207 0.006926 -0.070607 0.865094 0.136608 -0.390483 -0.536343 0.631255 -0.292102 0.507763 -1.334657 1.210007 -0.400000 -1.304086 0.022824 0.148178 0.213896 0.198168 0.660742 0.410300 1.182748 -0.599285 -0.090414 0.085054 0.432600 0.141156 1.106233 0.285813 -0.223777 -0.345894 0.414697 -0.161391 -0.100079 -0.072955 -0.236091 -0.053608 -0.269014 0.359389 0.179910 -0.088201 0.064400 -0.133393 -0.618468 -0.809171 -0.129535 0.218367 -0.163596 1.156339 0.234259 -0.384435 0.020060 -0.578127 -0.240564 -1.236437 -0.826280 -0.047243 0.018853 0.227641 0.415943 1.094434 -0.175903 0.301193 0.272772 -0.020057 0.194700 -0.360679 -0.573244 -0.043736 0.187290 -0.591774 -0.025038 0.818851 -0.066664 -0.094225 -1.042669 0.485143 0.324600 0.453292 -0.619233 0.130180 -0.334515 -0.234925 0.052776 -0.004634 0.099521 0.776063 -0.091380 0.400923 0.517941 0.396339 -0.336285 -0.461116 -0.417948 -0.510264 0.200919 -0.145789 -0.364175 0.065231 -0.632828 0.694688 0.768905 0.122255 0.095392 1.043285 0.037764 -0.434645 -0.486243 -0.267871 0.218247 0.259156 0.525703 0.061367 -0.233378 -0.123524 0.321274 -0.038173 0.106136 0.492419 -0.516457 0.073791 -0.103835 0.047168 0.058935 -0.038534 0.097690 -0.348633 1.344054 -0.116570 0.026634 -0.423656 -0.317119 0.877946 -0.271945 0.275749 0.054819 -0.104780 -0.846467 -0.753486 -0.233742 0.553186 0.517278 1.580522 0.486305 -0.419186 0.126509 0.564672 -0.699863 0.019286 0.307615 0.624795 -0.628825 0.118853 0.482622 -0.406699 0.316277 -0.749944 0.373859 0.083621 0.691574 0.138022 -0.374442 -0.371072 0.101483 -0.998293 0.256754 -0.168876 -0.002443 -0.310466 0.099807 -0.293666 0.080678 -0.002180 -0.016936 0.074836 -0.048962 -0.789296 -0.076032 -0.164713 -0.309188 -0.036044 0.451572 0.649410 -0.382025 0.948627 -0.125911 -0.095451 0.103930 0.509876 0.354241 -0.938401 -0.845217 0.141273 -0.677113 -0.261083 -0.886701 0.273549 0.460072 -0.575483 0.009290 -0.683596 -0.055821 1.119249 0.045931 -0.436890 0.427850 -0.692620 -0.397468 0.115916 -0.371270 0.185269 0.055419 -0.054196 -0.062958 -0.193695 
1.049780 -0.068141 0.641024 -0.482990 0.173146 -0.022724 0.162190 0.331154 0.285871 -0.714759 0.266830 0.109036 -1.259230 -0.219829 -0.640462 0.306080 -0.029020 0.403287 0.386066 -1.990348 -1.149272 -0.548736 0.180817 -0.205345 -0.235273 0.008730 -0.878977 0.345055 -0.248880 0.421165 -0.970151 0.078643 0.639434 -0.013181 -0.200211 -0.506111 -0.842315 -0.175497 -0.099969 0.390753 0.057024 -0.390005 -0.046574 0.005018 0.198020 -0.182989 -0.019872 0.137876 0.526863 0.310491 -0.086124 -0.627627 0.213379 0.071219 0.305622 0.350190 -0.647828 -0.333740 -1.106706 0.403437 0.129300 0.039447 0.749320 -0.244184 1.460325 1.251831 0.264320 -0.216501 -0.464459 0.088229 -0.608977 -0.025880 -0.453732 -1.041213 -0.122452 0.840231 0.612520 -0.686124 0.120151 0.261357 -0.530643 0.381851 0.446318 0.828714 -0.843570 1.108094 -0.040362 0.141842 -0.144727 0.141027 -0.145422 0.699601 -0.412600 -0.193109 0.111873 0.147620 0.710618 1.175321 1.066599 1.081333 0.080386 0.381664 0.225177 -0.950612 -0.420946 0.202639 0.716785 -0.660633 1.155016 -0.033244 0.322559 0.920624 0.646179 0.548311 0.272917 -0.512664 1.146650 0.313096 -0.224642 -1.796455 -0.829103 -0.208984 -0.134495 -0.339668 -0.426764 0.219934 1.702080 -0.493873 0.151248 0.317982 -0.684030 0.238224 -0.146163 0.543404 0.238343 0.474700 0.389202 -0.371689 0.082441 -0.250937 0.043738 0.426415 0.088843 0.229658 -0.609576 -0.480030 0.147410 -0.013610 -0.278156 0.159526 -0.320521 0.376513 0.497239 0.557587 -0.141735 -0.132887 0.457634 -0.076229 -0.280212 -0.427337 -0.175835 0.334239 -0.330872 0.956678 -0.377911 -0.635405 -0.500027 -0.556956 -0.070457 0.434836 0.077887 -0.561220 -0.536540 -0.315571 0.783295 -0.257302 -0.168874 0.011381 0.039226 0.248029 0.165717 -1.122085 0.270387 -0.334558 0.186400 -0.076774 -0.765345 -0.418344 0.232544 -0.858834 -0.669451 1.065011 0.627130 0.864319 0.395021 -0.883328 0.330569 0.018503 -0.292899 -0.596456 -0.688099 0.244842 0.264702 0.617958 -1.265270 -0.205984 -0.584866 0.424510 0.488758 0.079281 0.365053 0.432848 0.626395 -0.160764 -0.288693 -0.444318 -0.727392 -0.433459 -0.521510 -1.012149 -0.467473 -0.445696 -0.370140 -0.078599 0.437262 0.310681 -0.102933 0.058171 -0.033087 -0.028545 0.022282 -0.212842 0.799336 0.192923 0.850104 -0.224523 0.321139 -0.451805 -0.497007 -0.701883 1.238648 -0.164665 -0.599885 0.591369 -0.135521 0.793742 -0.244644 0.371398 -0.062727 -0.021305 0.271524 -0.140902 -0.229174 -0.182325 -0.154472 0.241671 0.546581 -0.153805 0.653600 0.465888 0.592570 -0.105905 -0.115386 -0.033093 -0.661552 -0.269237 0.662037 0.056186 -0.241298 -0.252101 0.327101 0.741597 1.488595 -0.434915 0.970998 -0.704057 -0.622991 -0.880095 -0.216306 -0.382369 -0.591679 -0.352345 -0.185147 0.327761 -0.240821 1.130532 -0.410206 0.077029 0.764394 -1.146227 0.677984 0.075890 0.355062 -0.501099 0.514852 0.153308 -0.193363 -0.028423 0.257515 0.032609 -0.587120 -0.072907 0.028275 0.081768 0.738353 -0.197719 -0.241335 1.202178 0.484114 1.300969 -0.030619 -0.526980 -0.420908 -1.136361 -0.427151 0.371768 0.397570 0.055817 0.012622 0.239825 0.458742 -0.161007 0.059973 -0.764965 -0.009331 0.854761 -0.050062 -0.420715 0.573639 -0.227781 -0.778673 0.237840 0.282578 -0.823090 -0.190507 -0.184363 0.362190 0.370739 0.725362 0.640726 1.364149 -0.419075 -0.566707 0.168413 -0.136305 -0.487523 -0.554150 -0.800796 -0.170959 -0.723189 -0.617560 0.374878 0.210654 0.332106 0.648345 -2.391179 0.064093 -0.135094 0.261647 -0.025823 
0.921944 0.139066 1.560066 -0.188036 0.824354 0.000121 -0.190171 -0.306282 0.121970 -1.289783 -0.458744 -0.770230 -0.763856 -1.077679 -0.331460 -0.122119 -0.819091 1.427693 -0.255672 0.203574 -0.555479 -0.160897 1.083525 0.650718 -0.082282 -0.180625 -0.402064 0.162889 -0.378762 -0.000785 0.107595 0.133013 -0.652701 0.353662 -0.482462 -0.203253 -0.258962 0.352097 0.359820 -0.086161 -0.314021 0.302748 -0.071408 -0.080063 0.263160 -0.398752 -0.946594 0.861166 -0.245166 -0.127660 -0.135172 0.252981 -0.640821 0.063223 -0.427369 0.063418 -0.044703 0.377855 0.370766 0.678136 0.050648 -0.217215 -0.745075 -0.072377 -0.391554 -1.194602 -1.314496 0.301507 -0.785433 0.389049 0.037753 0.544637 -0.415776 0.706151 0.466394 -0.351995 -0.992394 0.199213 -0.876238 -0.641407 -1.301890 -0.194150 -0.129357 0.352858 -0.217209 -0.152093 0.307589 -0.140207 -0.023993 -0.157524 0.182776 -0.191123 0.318609 0.173812 0.026777 -0.514351 -0.324835 0.153378 -0.240736 1.342922 0.740672 -0.369420 -0.832449 0.613625 -0.171406 1.086232 0.100009 0.003670 -0.129737 -0.282823 0.428614 0.453915 0.954027 0.013124 0.335076 0.055705 0.140201 -0.848970 0.017803 0.449285 0.264297 0.077178 -0.087411 -0.426980 1.142670 -0.176916 0.492103 -0.231098 1.197487 0.730644 0.779009 -0.806651 0.416877 -0.094380 -0.552894 -0.439875 -0.241672 -0.422373 -0.235132 0.113220 0.188258 0.176450 0.496227 0.022438 0.016432 -0.484672 0.325357 0.281397 0.196848 0.581432 0.011366 -0.136238 -0.409553 0.044294 -1.101220 -0.268117 0.598426 0.463120 -0.595664 0.274223 0.419090 0.140296 -0.016990 -0.644348 0.274077 0.126667 -0.019929 0.340357 1.208730 0.640935 -1.014481 0.164497 0.012744 0.416811 -0.716481 0.503828 0.784433 -0.019625 -0.666505 -0.267651 0.168661 0.760606 1.089010 -0.096844 0.148159 -0.653833 -0.205824 -0.217863 -0.691728 0.124876 -0.611224 0.023797 -0.479735 0.281571 -0.333832 0.082789 -0.147393 0.323318 -0.904111 0.393052 -0.425901 -0.394356 -0.172035 -0.543028 1.065316 -0.100273 0.350258 0.812421 -0.248157 -0.098464 -0.997044 0.181317 -0.021801 -0.344021 -0.033602 -0.385381 0.663431 -0.556816 -0.265841 -0.711614 0.088542 0.807021 -0.107806 -0.615994 -0.422737 -0.103105 -0.051653 0.016485 0.219657 0.211552 0.136554 -0.180522 -0.370156 -0.072963 0.535633 -0.328068 0.453734 -0.236187 -0.365508 0.338650 0.051387 0.404962 0.127785 -0.456381 -0.236756 -0.456237 0.218939 1.146566 -0.154148 0.379452 -0.593485 -0.063426 0.210613 -0.124619 0.347660 -0.324781 0.281385 0.366712 -0.574185 -0.711772 0.314339 0.839835 0.437491 -0.841048 0.359177 -0.744215 0.105323 -0.101228 -0.086222 0.340719 0.354703 -0.512406 0.003982 0.261468 -0.097518 -0.312362 -0.721929 -0.057838 -0.285418 -0.479231 0.108605 0.226313 0.695789 0.895492 -0.109619 -0.396863 0.162688 0.684095 0.396509 0.056843 -0.357164 0.324019 -0.283276 -0.027059 0.058961 0.160580 -0.233880 -0.190586 0.091316 0.514713 0.082769 0.252522 0.060162 0.754704 -0.400780 0.344292 -0.332923 -0.011172 -1.126665 0.971747 0.856184 -0.885222 -0.497567 0.881622 0.202768 0.128948 -0.182825 0.285491 -0.132205 -0.179871 0.181558 -0.053360 0.038554 0.394154 0.215864 -0.116663 0.145136 -0.033076 -0.368014 0.017344 0.427423 1.025434 -0.147291 0.697744 -0.141184 -0.412612 0.132616 -0.293984 -0.753858 -0.795600 -0.559012 1.068334 -0.456595 0.348316 0.231110 -0.232260 0.020324 0.309872 0.372934 0.408732 0.232974 0.266187 0.078511 -0.675320 -0.064263 0.737163 -0.075271 -0.153966 -0.204999 0.182477 
0.599865 0.111725 -0.737087 0.189679 -0.003454 -0.170004 -0.395995 -0.370413 0.738563 0.066113 0.187618 0.419782 0.585040 0.016263 -0.006151 -0.162133 -0.613819 0.488126 0.351222 -0.331053 -0.143921 -0.292751 -0.176380 1.220647 0.299887 0.135502 -0.816401 0.139807 0.145672 0.686095 -0.241270 0.303464 0.440021 0.734480 0.125518 -0.898324 0.234543 -1.221879 0.219503 -0.352191 0.674115 -0.474403 -0.239662 0.176987 -0.060659 0.782031 -0.528870 -0.025732 0.229327 0.291181 -0.030450 0.873080 0.032727 -0.395776 0.089543 -0.167305 -0.232934 0.459267 0.048985 0.005011 -0.536110 -0.095216 -0.362928 0.294581 0.278858 -0.208704 -0.537227 -0.248357 0.524395 0.661750 -0.242280 0.325318 -1.762513 0.589708 -0.351987 -0.380694 -0.444242 0.273391 0.379937 0.186913 -0.402194 0.558771 -0.469581 0.743394 -0.787720 0.999864 0.213265 -0.048552 -0.189546 -0.479798 -0.602226 -0.632650 -0.423690 0.197334 -0.301623 -0.144515 -0.579330 -0.429683 0.002639 -0.299464 0.137561 -0.075161 0.214331 0.727541 0.126664 -0.486047 0.368612 0.136752 -0.034389 -0.389033 -0.613853 0.065154 -0.693052 0.124553 0.132100 0.373841 0.552855 -0.285309 0.023333 -0.099380 -0.033641 0.000793 0.651838 -1.013828 -0.338493 0.023018 0.346736 -1.923033 0.280762 0.537777 0.915800 0.529932 0.145435 0.294911 0.290254 -0.013694 0.166075 -0.201912 0.115066 -0.208897 0.140379 0.508541 0.023017 -0.207518 -0.806369 0.483181 -0.302270 0.207666 -0.112405 0.236302 -0.678909 -0.916942 0.044284 -0.311757 0.114774 -0.884645 -0.966609 0.590381 -0.103299 -0.193284 -0.042718 -0.284384 0.606968 0.050046 0.095696 -0.291632 -0.146319 0.535121 0.353124 0.974792 -0.535208 1.034032 0.112638 -0.085939 0.420628 0.902026 0.540562 -0.120012 -0.552099 -0.224037 0.562767 -0.121851 0.315788 -0.087903 -0.009462 0.030978 0.500853 -0.591203 0.254214 -0.388881 -0.048200 -0.019721 -0.031514 0.160358 -0.111102 0.698362 -0.004671 -0.572982 -0.408486 -0.262903 0.007331 0.459615 0.228824 -0.332448 -0.533858 0.172411 0.725150 0.451122 0.059107 0.448097 -1.300141 -0.910669 0.511499 1.373590 0.820698 -0.000448 -0.170298 -0.457680 0.493026 -0.609004 -0.451391 -1.121826 -0.049824 -0.209667 -0.017305 -0.498569 0.030912 -0.288136 -0.188511 0.052560 0.064318 -0.083265 0.746572 0.184741 0.890711 0.913759 -0.212967 -0.735245 -1.060638 -0.987788 -0.147779 -0.531154 0.359651 -0.455103 -1.520626 0.890263 -0.504861 0.958339 0.433898 0.682157 0.756175 0.108204 0.020937 0.082313 -0.082459 -0.267929 -0.618878 -0.730350 0.035171 0.311632 0.547624 0.544826 1.481870 -0.528872 -0.435983 -0.088551 0.251626 -0.220476 -0.054340 -0.009701 -1.718710 -0.708048 -0.646937 0.165551 0.537862 -0.007975 -0.488340 0.035992 -0.070553 -0.126199 0.442989 -0.347369 0.078390 0.782565 -0.019900 0.562909 0.255512 0.438578 0.119014 -0.338778 0.064698 -0.372698 -0.875296 -0.015302 0.763853 1.238430 -0.011686 -0.597142 -0.070484 -0.486682 1.360169 -0.368010 0.688393 0.408162 0.799722 -0.238970 0.663507 -0.063572 0.714922 0.083071 -1.222448 0.015319 0.408588 -0.506826 -0.003913 -0.530300 0.506649 -0.648921 0.037964 0.039295 0.069616 -0.911832 -0.161656 -0.799336 0.039959 0.580154 -0.642934 0.375795 -0.473561 0.028238 0.596162 -0.188362 -0.293888 0.117084 0.135122 0.003441 1.017283 0.976533 0.145855 -0.768059 0.477284 0.606863 -0.084216 -0.087659 -0.036514 0.739644 -1.259338 0.666231 0.127333 0.992313 -0.266234 -0.911047 0.076641 0.333443 -0.061278 -0.324013 0.079057 -0.157594 0.162262 -0.553702 
-0.415159 0.385330 -0.095710 -0.235615 -0.165709 -0.425410 -0.018593 -0.822654 -0.129609 0.202795 -0.534883 0.613383 0.165737 -0.266762 0.144220 -0.047247 0.282379 -0.449199 0.520095 -0.196523 -0.814162 0.529860 -0.530852 -0.613305 -0.450813 0.058487 0.324277 0.279359 -1.065431 0.372096 -0.576478 0.373248 0.066394 0.819139 0.347979 0.124168 -0.425315 0.757048 -0.747344 0.361543 0.463178 0.229291 0.059132 0.107588 0.426082 0.088328 0.279317 0.432646 -0.081921 0.195092 -0.251559 0.184205 0.181901 0.522403 -0.451943 0.147320 -0.140003 0.071778 0.467440 0.373816 -0.578826 -0.107706 0.139497 0.479648 1.196708 0.172186 -0.875329 0.212587 0.204694 0.254445 0.477843 0.142655 0.098891 -0.186811 0.113395 0.174551 -0.210947 -0.649147 -0.182395 -0.391835 -0.013780 -0.676390 -1.246765 0.988602 1.023772 0.688133 -0.402637 0.142967 -0.000282 -0.032526 -0.584243 -0.243219 -0.243705 0.018477 -0.006559 0.023301 0.094443 -1.206761 -0.063568 -0.772249 0.151390 0.671682 0.354838 0.090274 -0.170676 -0.723405 -0.066730 0.134504 0.358351 -0.163673 0.251521 -0.586223 -0.190827 0.094447 -0.410931 0.902510 0.088633 -0.403959 0.207273 -0.104218 0.390296 -1.186358 1.173521 -0.858735 0.662361 0.481150 0.663751 0.161744 0.398603 -0.257447 -1.007441 -1.032824 -0.320933 -0.435336 -0.291232 -0.141936 -0.266366 -0.179864 0.012402 0.100138 0.369441 -0.944912 -0.403723 0.032504 -0.345918 -0.131825 -0.111749 -0.166313 -0.341963 0.692589 -0.271987 -0.329776 -1.116993 -0.633239 -1.552796 0.863323 0.185543 1.265075 0.774302 0.557551 -0.670583 0.315233 -0.777013 -1.596219 -1.177348 -0.178922 0.282432 -0.176740 0.283147 0.289684 0.412081 -0.136107 0.663230 -0.061604 0.005700 0.386625 0.150306 0.131347 -0.180544 0.183030 0.386656 0.144677 0.800766 -0.322262 -0.068714 -0.381546 -0.273920 0.263955 -0.393974 0.716386 0.297831 -0.543162 0.298249 -0.265121 0.157147 0.596229 -0.279092 -0.072730 -0.185194 0.080918 0.383359 0.054898 0.251718 -0.044176 0.591731 0.149886 -0.509176 -0.526655 0.408033 0.751384 -0.276785 0.056280 -1.047883 0.419205 0.594746 0.635456 -0.137241 0.335526 -0.323667 -0.274775 -0.216308 -0.294649 0.861619 0.065355 0.272474 0.079566 0.211488 -0.007608 0.133428 -0.116565 0.097511 0.500169 0.218976 -0.419879 1.403625 1.143136 -0.544211 -0.303841 -0.382729 -0.236502 1.179281 0.144125 0.104882 0.418469 0.841947 0.450531 0.540455 0.961067 -0.758113 -0.593496 -0.355889 0.809544 1.080491 -0.432048 0.107612 -0.304914 -0.326807 0.602927 -0.559492 -0.060546 -0.049978 0.171113 0.010719 -0.991528 0.426969 0.149140 0.259507 -0.087060 -0.276239 0.073591 -0.109118 -1.135219 0.454978 -0.081714 0.124444 -0.306611 0.277973 0.571318 0.064792 -0.435407 0.118593 0.742557 0.454567 -1.543715 -0.444184 -0.549619 1.019887 -0.496331 0.469181 -0.052515 -0.244002 0.343465 -0.498482 -0.152492 -0.460672 -0.131471 -0.163019 0.494584 -0.310102 -0.103917 0.352096 0.266248 0.487258 -0.278369 -0.001436 -0.138862 0.557975 -1.049907 -0.983515 -0.657457 0.691607 -0.664953 -0.701616 -0.602757 0.570422 -0.076100 -0.096334 0.068816 -0.158763 -0.032690 0.015421 -0.142527 0.243434 -0.894771 0.078813 0.369934 0.168805 0.016926 0.087423 0.550476 0.222240 0.320090 0.571628 -0.056087 0.540587 -0.330520 -0.367850 -0.386810 -0.512780 -0.103609 0.463360 -0.388686 -0.738186 -0.031160 0.434125 0.428051 1.449375 0.414414 0.874326 -0.187792 -1.100810 -0.202188 0.405303 0.065000 -0.395712 -0.302895 0.372615 -0.049703 0.065764 0.051168 
0.033944 0.163672 0.302197 -0.013353 1.238304 -0.052896 -0.267552 -0.835361 0.031471 0.147620 -1.078732 -0.901371 -0.417950 0.129134 -0.304052 0.206724 -0.190797 0.507268 -0.761145 0.347964 -0.646261 0.592218 1.076887 -0.281170 0.557047 0.006137 0.204228 -0.273894 0.634417 -0.104998 -0.809774 -0.327178 0.308448 -0.514994 -0.803832 -1.078335 1.248927 1.402786 0.225444 0.066441 -0.139112 0.036273 -0.043154 -0.641360 -0.253289 -0.270437 -0.558911 -0.172607 0.086018 0.370341 0.050040 1.061506 0.269941 0.091136 -0.064615 0.184485 1.368354 -0.022061 -1.193947 0.086229 -0.408502 -0.314361 -0.124598 0.608471 0.425203 -1.064082 0.526667 0.013287 -0.387114 0.330819 -0.175900 -0.307633 0.385637 0.179842 1.576035 0.283608 0.868385 -0.338303 -1.136011 -0.393709 0.305994 -0.702914 -0.116272 0.347206 -0.201033 0.104916 0.453643 0.107671 -0.197202 -0.307188 -0.120834 -0.241171 0.790976 -0.050953 0.216104 -0.264522 -0.257700 -0.195612 0.287588 -0.308701 -0.232020 -0.282891 0.405192 -0.833854 0.487232 -0.064896 1.167201 -0.286177 0.037807 0.383100 -0.345066 0.437577 -1.226249 0.028038 0.238638 0.519675 -0.634867 0.247857 0.663931 0.037394 0.282154 -0.202196 0.427025 0.007203 0.587791 0.120932 -0.089614 -0.435885 -0.169172 0.077758 -0.267167 0.085815 -0.306080 0.046624 -0.242539 0.161458 -0.259454 -0.210640 0.020778 0.156488 -0.008715 -0.407620 -0.017123 0.551219 0.244492 0.013322 -0.037973 0.672440 -0.039468 -0.149659 0.669009 0.467489 -0.757416 -0.008772 0.586295 -0.433954 0.188837 -0.218500 0.537163 -0.451855 -0.186461 -0.263147 0.514614 -0.327550 0.273732 -1.061487 0.319210 0.334425 0.419960 0.136415 0.154907 0.768956 -0.234727 -0.117280 0.762992 0.478078 0.508730 -0.059233 -0.442793 -0.246389 -1.181721 -0.067171 0.667539 0.199669 -0.431217 -0.448096 -0.291886 0.124916 -0.775079 1.473217 -0.081101 0.349801 -0.982776 0.088533 0.149273 0.103488 0.478465 1.536403 -0.540452 -0.368519 -0.242810 -0.372763 -1.165609 -0.336916 0.247430 -0.102611 -0.711139 -1.048694 0.428562 0.112501 -0.553743 -1.042564 -0.920159 -0.015934 -0.567165 0.213642 -0.926374 0.184688 -0.409777 -0.290302 0.435175 0.742791 0.092790 0.762445 0.472432 0.215812 -0.051048 0.127678 0.156639 -0.383206 -0.353734 0.265759 -0.206009 -0.561195 -0.442946 -0.656365 0.506928 -0.178950 0.223960 0.020031 0.188713 0.350720 -0.054477 -0.578479 0.319421 -0.007711 -0.369080 -0.100944 0.133443 0.461643 -0.129167 0.526181 0.213622 -0.148262 -0.140719 0.640329 0.021655 0.205144 0.403719 0.819322 -0.130194 0.108386 -0.795771 0.241581 -0.276012 0.147476 0.269632 0.098726 -0.170835 -0.042398 0.405132 -0.168920 0.154603 0.301503 0.125331 -0.398033 -0.281526 0.422844 0.779354 0.333116 0.292389 0.086486 0.372331 -0.154635 0.138927 0.520830 0.450796 0.344377 0.386149 -0.382715 -0.626534 0.553527 -0.470941 -0.227855 0.407578 0.147214 0.196594 -0.252297 0.036561 0.074401 -0.206542 -0.716521 0.530884 0.453417 1.024210 0.323349 0.202542 0.278178 -0.506984 0.670793 0.054238 -0.387848 -0.829088 -0.518857 -0.536055 0.025477 -0.144954 0.054069 0.113208 0.265743 0.583693 -1.239204 0.201846 1.035511 0.289952 -0.919013 -0.017810 -0.809648 -0.333935 -0.217255 -0.611637 0.818936 -0.208716 -0.719799 0.955367 -1.081093 0.182123 -0.055043 -0.517971 -0.654352 -0.034505 -0.645209 -0.319956 0.195958 -0.080911 0.663931 -0.706417 0.488829 0.460845 0.726251 -0.575943 -0.464244 0.070858 -0.048111 -0.118517 -0.035458 0.549339 0.038623 -0.173106 -0.149524 