0.061204 0.194869 2.027840 1.739340 1.956560 2.046780 3.603840 3.551660 1.937260 5.329280 5.398800 2.069000 1.664610 0.172415 3.808940 3.552180 1.783560 3.913280 5.303230 3.388130 4.005140 0.071351 5.307940 3.856070 3.603110 7.131340 5.656930 5.437300 1.635020 5.771680 0.092406 3.574960 5.791710 1.869070 5.455850 5.632930 5.408140 7.139310 0.220130 6.987410 1.966120 0.349543 1.761890 3.427800 0.226381 3.651490 5.476740 0.191174 7.135200 1.914290 3.832730 1.755690 3.516980 3.812790 3.564110 5.336430 4.047500 5.288890 7.000370 3.928840 1.913980 1.708180 5.592270 3.758010 3.400530 5.840950 5.518000 5.215340 5.808440 0.074249 0.091447 5.599210 3.565950 1.580650 0.361945 5.338960 3.659010 0.392038 0.167381 5.440020 0.270551 1.709260 0.098008 0.397115 5.346160 1.793970 2.146910 6.861830 3.627500 2.131030 1.782230 5.421170 1.922420 3.541530 0.092344 2.265730 
7.020220 0.039294 2.123300 1.773140 1.943370 2.114660 3.742630 3.668740 2.092770 5.397140 5.420650 2.011370 1.879800 0.062433 3.808810 3.567670 1.773670 3.971020 5.435600 3.644860 3.992050 0.128231 5.445940 3.953870 3.514450 0.002052 5.576010 5.519840 1.822720 5.721830 7.129740 3.589020 5.708960 1.899450 5.158580 5.715210 5.219260 0.024656 0.319577 7.135560 1.723710 0.570067 1.924950 3.473290 0.533150 3.675490 5.477290 0.297349 7.154370 1.653240 3.838080 1.792530 3.390290 3.839940 3.383390 5.418040 3.757920 5.311970 0.065227 3.860300 1.803080 1.838470 5.679320 3.538140 3.625530 5.696770 5.238650 5.475140 5.646360 0.161450 7.134580 5.606670 3.550590 1.742410 0.176006 5.421050 3.311860 0.344703 7.081690 5.275520 0.179737 1.864990 0.065029 0.337305 5.271480 1.844930 2.192110 0.012497 3.542090 2.096330 1.689490 5.341180 1.995480 3.546380 0.135860 2.098200 
7.119600 7.047080 2.021720 1.715670 1.861790 2.079940 3.501360 3.497900 2.097320 5.344470 5.337280 2.133610 1.917900 0.107768 3.853830 3.532690 1.836750 3.828860 5.354150 3.548230 3.984140 7.099590 5.395190 3.963950 3.687180 0.042040 5.453990 5.278030 1.766870 5.753140 7.047000 3.426240 5.810530 2.006930 5.483060 5.568450 5.204750 0.054115 0.216138 0.014289 1.801650 0.319392 1.737280 3.657190 0.300615 3.666810 5.395270 0.129298 7.061950 1.597040 3.721250 1.592000 3.507770 3.887130 3.714450 5.249800 3.977080 5.362180 0.023079 3.762810 1.809570 1.719540 5.776950 3.450100 3.571240 5.772400 5.502490 5.367020 5.649540 0.170689 0.049150 5.621150 3.531260 1.683870 0.284647 5.362790 3.747180 0.291554 0.000178 5.438540 0.335554 1.836790 7.078880 0.367295 5.440100 1.919270 1.893100 0.129923 3.680010 2.203440 1.840610 5.394420 2.483570 3.588340 0.008243 2.312830 
0.100561 0.050823 2.059550 1.750120 1.666230 2.138540 3.545010 3.518480 2.178840 5.409460 5.415730 2.181790 1.755700 0.117739 4.138370 3.647210 1.842410 3.911690 5.355920 3.499590 3.850430 7.145310 5.365160 3.864530 3.468000 0.027637 5.704410 5.407840 1.841790 5.681410 0.056231 3.556070 5.587850 1.802680 5.307260 5.738620 5.254620 7.111470 0.379949 0.038436 1.647550 0.124015 1.825570 3.587200 0.328011 3.609630 5.414280 0.375774 0.155842 1.834320 3.791990 1.856170 3.712330 4.060590 3.632770 5.487010 3.762370 5.507850 0.117290 3.944400 1.616040 1.839950 5.442770 3.730930 3.570420 5.710300 5.244810 5.412570 5.595920 7.068350 6.998780 5.843350 3.457850 1.808180 0.232520 5.278360 3.620440 0.341974 7.136590 5.302650 0.216137 1.834880 6.999180 0.243723 5.433890 1.760130 2.149030 7.104000 3.738430 2.012120 1.824730 5.352860 2.166230 3.565750 7.097180 2.098050 
0.120445 7.114570 2.174330 1.792490 1.756250 2.128010 3.543170 3.688410 2.152610 5.418870 5.386480 2.067880 1.901270 0.005822 3.878830 3.400150 1.900730 3.951390 5.410220 3.649640 3.878370 0.075794 5.367960 3.825360 3.701090 7.080120 5.640770 5.228210 1.808290 5.663930 7.083700 3.490910 5.589010 1.877910 5.327680 5.606530 5.212720 0.099340 0.546816 0.054924 1.850220 0.230004 1.876500 3.573970 0.439411 3.672770 5.478710 0.439805 7.100140 1.855480 3.846630 1.729650 3.623860 3.852030 3.620810 5.370510 3.915220 5.465110 0.059145 3.863370 1.762880 1.612280 5.699150 3.566560 3.626560 5.512850 5.389210 5.216590 5.726180 7.010620 6.983990 5.740510 3.389800 1.717550 0.269788 5.358940 3.576300 0.277629 0.117706 5.337630 0.231047 1.865360 7.003680 0.298997 5.133410 1.881190 2.131650 0.119945 3.763840 2.036410 1.919600 5.380580 2.159290 3.537320 0.032843 2.081440 
0.005097 0.035839 2.278710 1.816730 1.759760 2.108410 3.691650 3.602200 1.815950 5.378470 5.414490 2.189930 1.965310 0.066942 3.961170 3.591160 1.949510 3.964600 5.347810 3.423590 3.778570 7.108280 5.260840 3.776210 3.755290 7.092390 5.701130 5.401690 1.882110 5.742200 0.114621 3.566620 5.767820 1.602780 5.488290 5.600760 5.303850 7.015440 0.352738 0.002544 1.712160 0.477694 1.692710 3.528950 0.406707 3.463350 5.392850 0.231439 7.126530 1.829890 3.902980 1.778840 3.604370 3.791690 3.562570 5.267220 3.709170 5.387710 0.029736 4.010120 1.861110 1.876130 5.620820 3.546640 3.627130 5.865640 5.373830 5.317010 5.591120 0.115195 0.030316 5.683870 3.369450 1.768580 0.237122 5.532740 3.620990 0.275321 7.133850 5.467040 0.378687 1.841150 7.090450 0.484816 5.267670 1.765550 1.985420 7.024000 3.655280 1.893160 1.800570 5.264680 2.093280 3.657920 0.050965 2.178000 
0.072133 0.087799 1.946450 1.767140 1.880350 2.068560 3.533130 3.651490 2.131520 5.372090 5.346220 2.084850 1.874230 0.002869 3.800960 3.652230 1.611650 3.931490 5.449870 3.720160 4.157190 7.128400 5.340110 4.144320 3.659180 0.148365 5.536300 5.395990 1.868440 5.678750 0.137113 3.479930 5.631790 1.701960 5.387450 5.668800 5.373800 7.138220 0.143784 7.012960 1.821330 0.244323 1.785920 3.437400 0.295589 3.533230 5.610160 0.242378 7.043820 1.804880 3.924530 1.686810 3.385220 3.935080 3.533600 5.110590 3.988340 5.460380 7.030230 3.757570 1.881500 1.778350 5.773580 3.390130 3.644490 5.653240 5.393500 5.321790 5.809770 0.206935 0.066780 5.624200 3.493600 1.858480 0.348630 5.305800 3.656000 0.153667 7.133610 5.507130 0.347015 1.859860 7.118430 0.248991 5.290110 1.954620 1.969240 0.007743 3.655310 2.085090 1.845590 5.128890 2.309460 3.638760 7.067980 2.219790 
7.119080 7.136580 2.163590 1.587120 1.761450 2.079660 3.572390 3.645970 2.118300 5.412650 5.267870 1.978370 1.803350 0.023340 3.986410 3.540090 1.804920 3.992140 5.408550 3.494140 3.929020 7.087300 5.371500 3.909650 3.563110 7.097150 5.751700 5.374470 1.800770 5.677460 0.127779 3.493940 5.611880 1.802870 5.433170 5.630680 5.466260 7.140390 0.332403 7.041520 1.907790 0.348116 1.718060 3.565530 0.352005 3.606420 5.423800 0.274412 0.063536 1.772330 3.896790 1.809630 3.579460 3.872140 3.543160 5.379710 4.006310 5.450580 0.046917 3.717070 1.767380 1.813750 5.690270 3.516370 3.497420 5.748960 5.543520 5.306560 5.726450 7.125690 0.067777 5.609520 3.583800 1.763950 0.336996 5.504170 3.583180 0.304277 0.159064 5.453600 0.082061 1.734470 0.267320 0.305196 5.244270 1.739040 2.045250 0.042966 3.532910 2.272740 1.689990 5.391810 2.045750 3.611530 7.057100 2.059650 
7.068900 7.156150 2.146940 1.952940 1.659990 2.125640 3.481960 3.463870 2.024570 5.285050 5.448440 2.196530 1.702520 0.006378 3.944790 3.657930 1.872480 3.961920 5.415210 3.482910 3.951720 7.086080 5.397610 3.799560 3.467610 0.096121 5.710190 5.387090 1.922910 5.670150 7.136260 3.587470 5.672290 1.780350 5.271400 5.601470 5.345520 0.037012 0.282885 0.300820 1.745330 0.443151 1.811740 3.635760 0.325883 3.624610 5.391390 0.094677 7.163290 1.842420 3.896510 1.678580 3.665740 3.839270 3.631910 5.047740 3.959520 5.189480 0.162964 3.925230 1.800950 1.906660 5.437340 3.685080 3.457380 5.730430 5.458350 5.404350 5.673160 7.093810 0.029172 5.585540 3.533390 1.756600 0.255183 5.393860 3.532860 0.377023 7.142260 5.448400 0.489034 1.745160 7.022510 0.429391 5.292750 1.827050 2.090190 0.030182 3.522810 2.055160 1.985850 5.445870 2.117270 3.619240 0.045741 2.042660 
7.128970 0.007563 2.231660 1.697120 1.851420 2.083460 3.747480 3.623840 2.067110 5.448310 5.294060 2.241740 1.835870 6.958280 3.872670 3.460310 1.765330 3.933280 5.312150 3.450450 4.016270 6.990480 5.154680 4.005640 3.594560 0.067233 5.709410 5.370630 1.748110 5.851910 7.088290 3.427320 5.627940 1.661400 5.359890 5.676470 5.424800 7.076560 0.302094 7.104400 1.873680 0.388550 1.791840 3.553110 7.141480 3.552970 5.439970 0.213540 7.128790 1.783230 3.847720 1.862410 3.638630 3.852780 3.851870 5.461990 3.892340 5.401030 0.098220 3.989620 1.695160 1.861620 5.410610 3.536410 3.564160 5.686740 5.410540 5.494310 5.744410 0.127718 7.103760 5.603460 3.551160 1.795480 0.414431 5.366330 3.766570 0.178504 0.033700 5.405590 0.373733 1.734600 0.126214 0.236576 5.406870 1.797070 2.015390 0.020015 3.586520 2.120880 1.801660 5.366590 2.103330 3.647100 7.119640 2.185330 
0.189326 0.041095 2.173900 1.984610 1.719570 2.134850 3.492000 3.493770 2.054130 5.278080 5.531740 2.167260 1.945750 0.015277 3.992670 3.687490 1.945840 3.998810 5.328680 3.607250 3.926910 7.068110 5.295850 3.855270 3.668360 7.114860 5.646840 5.381640 1.725840 5.657380 7.158980 3.613140 5.720320 1.793440 5.378480 5.724390 5.506090 7.117460 0.331455 0.008528 1.716990 0.395742 1.846100 3.429270 0.303628 3.660770 5.372700 0.301099 7.072570 1.881240 3.765180 1.704950 3.539380 3.910060 3.424690 5.252400 3.927160 5.375730 0.188646 3.927500 1.765330 1.807240 5.616610 3.537080 3.657360 5.779980 5.265540 5.386920 5.473800 0.069033 7.126110 5.634690 3.655190 1.820170 0.325447 5.345020 3.531310 0.275072 0.122712 5.293550 0.246025 1.754750 0.068810 0.300613 5.297660 1.615970 1.986180 7.162680 3.634280 2.118220 1.663910 5.445520 2.177260 3.406310 0.089258 2.006780 
0.096632 7.100580 2.137500 1.884230 1.728420 2.132410 3.577800 3.702140 1.954160 5.484150 5.504310 2.005770 1.777170 7.142860 3.918250 3.497530 1.770900 3.853260 5.306650 3.694090 3.637770 0.153436 5.277960 3.981380 3.617150 0.051379 5.727010 5.199210 1.965920 5.533560 7.095980 3.562550 5.676160 1.718830 5.233650 5.745690 5.444060 0.055165 0.345721 0.017727 1.790520 0.346027 1.707870 3.503210 0.254583 3.472950 5.439040 0.249118 0.013146 1.807500 3.799160 1.775300 3.548620 3.920190 3.500340 5.353320 3.963730 5.343130 6.946630 3.841860 1.828960 1.749450 5.749950 3.463520 3.679320 5.802850 5.388280 5.342970 5.681400 7.075850 7.138610 5.848900 3.456470 1.882750 0.398689 5.356880 3.515370 0.360974 0.070651 5.143020 0.341168 1.838450 7.112010 0.429669 5.431120 1.838160 1.906490 0.153718 3.669470 2.135740 1.848750 5.437610 1.975580 3.697570 0.097448 2.200520 
0.008093 7.116470 2.216700 1.692120 1.817960 2.160300 3.388990 3.461990 2.029260 5.236690 5.460600 2.009720 1.800180 0.056293 3.952110 3.653770 1.661750 3.864050 5.362360 3.707560 3.797690 0.121628 5.485030 3.772350 3.559590 0.022483 5.661540 5.468560 1.886430 5.673540 0.073561 3.678500 5.717730 1.925370 5.413530 5.648970 5.393950 7.100370 0.291459 7.051050 1.611500 0.420217 1.802840 3.686810 0.410880 3.751570 5.365700 0.265258 7.041020 1.775670 3.911570 1.786340 3.474860 3.892820 3.481230 5.313170 3.821630 5.440170 0.051760 3.661980 1.801270 1.872340 5.926780 3.610920 3.623170 5.870270 5.255300 5.629200 5.468240 0.114603 0.045480 5.750390 3.600710 1.696570 0.428875 5.472720 3.515980 0.292714 7.143610 5.286960 0.181576 1.586050 7.004690 0.512624 5.470860 1.753040 2.040180 7.145270 3.568800 2.053090 1.809430 5.325950 2.091250 3.571310 7.150510 2.059470 
7.131010 7.154820 2.195180 1.751230 1.773100 2.369980 3.682290 3.599890 2.215580 5.366890 5.313120 1.890540 1.768390 7.017500 3.891100 3.668400 1.854560 3.819100 5.420750 3.619970 3.972990 7.053980 5.270690 3.958860 3.447410 7.012860 5.723660 5.190670 1.662250 5.683840 7.083260 3.659450 5.831330 1.818830 5.414670 5.642820 5.281760 0.182375 0.307419 7.014160 1.708100 0.085661 1.877060 3.454290 0.186801 3.562500 5.284190 0.333181 0.025635 2.012620 3.927170 1.897740 3.523150 3.969690 3.494410 5.378500 3.872950 5.254950 0.174171 3.874080 2.055830 1.797260 5.659200 3.704330 3.601640 5.617660 5.441000 5.421440 5.629690 0.011743 0.080134 5.555510 3.562310 1.669170 0.379468 5.288880 3.452020 0.270352 0.060732 5.562130 0.278962 1.811520 0.176591 0.379604 5.623680 1.839080 2.087890 0.002885 3.698680 2.002010 1.787090 5.214520 2.123370 3.479800 7.038160 2.119600 
7.156670 0.003380 2.212880 1.852470 1.629110 2.024940 3.720970 3.448310 2.108510 5.487210 5.464210 2.110330 1.782820 7.023160 3.827010 3.567180 1.672130 3.927000 5.422230 3.496400 3.761010 7.038110 5.260650 3.912950 3.572340 0.098638 5.677520 5.347120 1.913700 5.726620 7.078570 3.678040 5.630610 1.756660 5.293760 5.660850 5.530660 0.078786 0.399515 7.162580 1.746670 0.391050 1.800880 3.526510 0.274511 3.585210 5.438890 0.383089 0.094922 1.953720 3.827890 1.818450 3.523400 3.924580 3.574230 5.243910 3.697270 5.298030 7.124370 3.914970 1.753920 1.868960 5.772750 3.796060 3.580740 5.713980 5.300780 5.424760 5.732520 7.079840 0.099316 5.479390 3.498100 1.663540 0.408230 5.421130 3.660890 0.464413 7.040280 5.508790 0.322309 1.652070 0.170839 0.349495 5.523740 1.652650 2.086630 7.108320 3.620700 2.078180 1.712820 5.423410 1.880960 3.578230 0.001131 2.173260 
7.145920 7.137620 2.077820 1.765300 1.740430 2.248690 3.572290 3.780900 2.150630 5.307030 5.476660 2.123970 1.667190 7.103910 3.883130 3.607610 1.398850 3.916850 5.368220 3.472320 3.869150 7.094540 5.241840 3.755760 3.677100 7.065150 5.786840 5.428670 1.821840 5.608600 0.041352 3.490900 5.487370 1.757330 5.388660 5.749230 5.367010 7.065820 0.206202 7.048560 1.788850 0.257648 1.721630 3.661540 0.388937 3.488480 5.477030 0.485570 7.094980 1.767980 3.651720 1.971410 3.493080 3.862000 3.555130 5.516000 3.989910 5.446910 7.124310 3.886760 1.909390 1.882710 5.682420 3.708340 3.815190 5.751220 5.534020 5.439920 5.721570 7.157010 0.132509 5.725960 3.623510 1.792710 0.244196 5.423100 3.535520 0.301607 7.087600 5.388470 0.395872 1.726260 0.088547 0.315350 5.366450 1.603870 1.994990 0.033645 3.596890 2.112010 1.734640 5.374490 2.213900 3.518120 0.120441 2.009370 
7.141060 0.126457 2.002320 1.926910 1.745340 2.077390 3.524150 3.636950 2.048970 5.392540 5.361010 2.107630 1.714500 6.891370 3.791120 3.399030 1.758800 3.960430 5.445100 3.667500 3.976170 7.114940 5.294660 4.086970 3.295400 7.054120 5.758500 5.480920 1.706770 5.615020 7.063780 3.626490 5.886150 1.828490 5.174580 5.813460 5.536570 7.054160 0.242571 7.108270 1.784590 0.240454 1.760550 3.622110 0.359752 3.625590 5.508270 0.371559 0.129564 1.811140 3.930150 1.852680 3.728890 3.923800 3.684400 5.295310 3.817480 5.331500 0.108473 3.997470 1.819840 1.951620 5.619520 3.685840 3.693970 5.573520 5.238100 5.445380 5.622030 0.028271 7.136560 5.600180 3.616790 1.705410 0.234231 5.180790 3.557010 0.250570 0.018545 5.343220 0.243181 1.743020 0.010600 0.158965 5.528470 1.868280 2.166940 0.138843 3.721210 2.228230 1.733510 5.314780 2.058730 3.533140 7.079880 2.091770 
0.111110 7.073060 1.907250 1.627370 1.715340 1.961210 3.524730 3.385020 2.201180 5.346660 5.107510 2.179770 1.807850 0.058519 3.738080 3.476130 1.740590 3.734890 5.271730 3.496540 3.889690 0.164975 5.408610 4.002820 3.434230 7.109650 5.537470 5.026510 1.848110 5.481190 0.046340 3.404490 5.697280 1.885830 5.269800 5.783510 5.391970 0.006430 0.294022 7.060180 1.869900 0.275592 1.686090 3.673170 0.400480 3.635760 5.507090 0.378571 0.033103 1.728770 3.855780 1.910660 3.654330 4.035750 3.698300 5.402310 3.972990 5.267910 0.012347 3.841920 1.779020 1.978840 5.886660 3.698480 3.779010 5.996470 5.426760 5.434530 5.605880 0.007843 0.132816 5.572690 3.508660 1.829470 0.071465 5.407210 3.561440 0.549688 7.108840 5.483050 0.198660 1.849300 6.998210 0.228976 5.386980 1.646910 2.099780 0.062706 3.644050 2.177170 1.995060 5.394020 2.233810 3.655170 0.103376 2.064540 
7.076230 0.047747 2.154270 1.648970 1.716620 2.161130 3.542200 3.539290 2.000340 5.296990 5.323990 2.169970 1.776900 7.068340 3.924810 3.763320 1.912500 3.949080 5.306540 3.712320 3.919680 7.023110 5.360180 4.029420 3.635650 7.086230 5.527200 5.420890 1.866500 5.567220 6.992330 3.657820 5.786900 2.031310 5.432240 5.766030 5.524500 0.030839 0.149953 7.108380 1.678560 0.456682 1.815790 3.634920 0.124503 3.501740 5.420730 0.356910 7.110280 1.688820 3.858730 1.747360 3.576510 3.936820 3.654350 5.410680 3.847050 5.393960 0.113328 3.834730 1.817010 1.740390 5.568260 3.696190 3.482320 5.774030 5.393820 5.558260 5.818200 0.028505 0.021974 5.734940 3.639940 1.637790 0.180066 5.316760 3.617650 0.322153 0.021203 5.309630 0.334045 1.859040 7.123510 0.172548 5.282990 1.767350 2.099170 7.154300 3.513230 2.126190 1.773860 5.400300 2.062350 3.594350 0.006727 2.141870 
0.035291 7.111830 2.086500 1.851740 1.847260 2.180970 3.609730 3.632770 1.951850 5.443390 5.357670 2.103270 1.838410 7.146080 3.948130 3.558780 1.862890 3.770210 5.384540 3.470960 3.818000 6.912060 5.337160 3.916560 3.496310 7.152920 5.818940 5.531990 1.859550 5.659750 7.051750 3.632950 5.598930 1.546910 5.371140 5.792610 5.411940 0.152209 0.279782 0.071026 1.900010 0.117141 1.854360 3.546230 0.236571 3.842000 5.465830 0.320319 0.053445 1.703090 3.846210 1.562940 3.607790 3.931550 3.538720 5.290950 3.900540 5.432920 0.116395 4.009130 1.786880 1.847130 5.636900 3.721210 3.588180 5.681340 5.332220 5.377570 5.535820 7.067830 7.092100 5.893140 3.607900 1.965740 0.466702 5.442880 3.362170 0.331139 7.008070 5.285340 0.227160 1.785840 7.162520 0.382707 5.468010 1.789810 2.209970 0.036393 3.476070 2.103170 1.828680 5.288310 2.073880 3.506970 7.148130 2.026350 
7.063130 0.083658 1.791240 1.897060 1.751560 2.227670 3.575410 3.488280 2.189480 5.322730 5.396300 2.040660 1.765880 7.074960 4.027330 3.546310 1.798670 3.939100 5.338070 3.537230 3.870580 0.028609 5.388750 3.855960 3.530760 7.095140 5.549940 5.314490 1.638730 5.618200 7.044390 3.587490 5.793840 1.789110 5.265150 5.812370 5.288330 0.137929 0.322434 7.036640 1.718560 0.239797 1.901480 3.529190 0.302514 3.615870 5.577780 0.300338 0.036288 1.762110 3.860700 1.721740 3.579380 3.971240 3.618420 5.500880 3.725690 5.459710 0.068374 3.762880 1.814820 1.780920 5.653520 3.696310 3.657970 5.739560 5.424830 5.453910 5.691620 7.111810 6.995920 5.752570 3.502830 1.975020 0.282142 5.392410 3.705520 0.354643 0.187812 5.092880 0.471857 1.788600 0.036516 0.253057 5.361120 1.752280 2.040970 0.113087 3.479330 2.101140 1.764970 5.524290 2.207840 3.568100 0.022618 2.104340 
0.034688 0.176355 2.176070 1.828370 1.738650 2.192990 3.636820 3.627730 2.091290 5.496740 5.291010 2.000560 1.844360 0.067328 3.815400 3.679840 1.793220 3.879160 5.269500 3.628630 3.862890 7.020330 5.374180 3.903050 3.471060 0.067865 5.735170 5.450260 1.656200 5.475600 7.007740 3.478490 5.781780 1.552060 5.351160 5.645050 5.371080 7.079710 0.464533 0.032293 1.840690 0.318698 1.807420 3.536390 0.330639 3.667490 5.288950 0.343501 7.119710 1.973900 3.918350 1.771130 3.707370 3.853800 3.654110 5.276120 3.907910 5.303550 0.002835 3.852600 1.868870 1.827500 5.658010 3.696850 3.592320 5.713240 5.288820 5.259970 5.693550 0.015604 0.133981 5.579210 3.616000 1.808650 0.376765 5.374130 3.490980 0.304360 7.143600 5.375140 0.201734 1.782850 0.061703 0.441521 5.467200 1.861410 2.203050 7.033380 3.450250 2.040440 1.821970 5.311410 2.019960 3.657110 7.163390 2.074390 
0.083891 0.091811 2.087730 1.830240 1.649950 1.975610 3.613160 3.438960 2.091520 5.442010 5.236710 2.285380 1.842000 0.234727 3.793720 3.512780 1.858240 3.895080 5.434350 3.513870 3.934640 0.214878 5.511750 3.974420 3.579040 7.041100 5.701950 5.542070 1.685920 5.683260 7.064470 3.548850 5.766840 1.826360 5.446810 5.598530 5.351020 7.133070 0.438381 0.024926 1.812490 0.400117 1.646540 3.547720 0.288614 3.536020 5.433840 0.206334 0.060244 1.870640 3.843880 1.689000 3.483960 3.697870 3.457210 5.190940 3.893590 5.431090 0.043885 3.955190 1.673570 1.735020 5.607420 3.361140 3.579830 5.580980 5.405230 5.477890 5.737940 0.130691 0.007761 5.704170 3.684360 1.826070 0.266477 5.315080 3.679350 0.422456 7.079800 5.356560 0.432300 1.778630 0.178821 0.233960 5.346730 1.753910 1.996070 7.101650 3.590280 2.085290 1.780730 5.419830 2.084760 3.618390 7.076740 2.190770 
0.140750 0.047131 1.981700 1.776800 2.006290 2.104500 3.654920 3.709300 2.137130 5.487760 5.370320 2.065540 1.730330 0.081599 3.851130 3.487700 1.889080 3.811390 5.469230 3.761650 3.881630 0.028854 5.365150 3.847020 3.545140 0.070565 5.626640 5.423100 1.679840 5.810700 7.002640 3.506910 5.618220 1.489490 5.385360 5.603850 5.333400 7.093880 0.315457 7.134400 1.817530 0.308566 1.823250 3.564290 0.069194 3.672820 5.341350 0.298604 7.083630 1.705320 3.884910 1.763990 3.537150 4.013680 3.424310 5.334610 3.959910 5.334090 7.121790 3.847540 1.773060 1.698150 5.637220 3.827010 3.415310 5.726960 5.417790 5.306050 5.699570 7.156480 7.130140 5.746530 3.461580 1.747080 0.416122 5.400680 3.548530 0.379180 0.189879 5.461370 0.339392 1.889680 0.001381 0.424061 5.321660 1.786110 2.066650 7.098100 3.644990 2.069850 1.777330 5.362430 2.140770 3.665090 7.130460 2.171640 
0.196813 0.041889 2.218590 1.876470 1.798230 2.052070 3.552990 3.571790 2.146400 5.339940 5.338370 2.095080 1.827160 0.027965 4.009720 3.547920 1.725390 3.884110 5.423040 3.507770 3.884150 0.130885 5.422220 3.998840 3.481330 7.112910 5.627120 5.443790 1.775430 5.722140 7.130120 3.577480 5.609110 1.859860 5.223410 5.870690 5.243020 7.127070 0.481761 7.137460 1.777150 0.292827 2.133520 3.400760 0.230276 3.540590 5.411340 0.434510 0.136567 1.862650 3.834810 1.766370 3.678640 3.743570 3.614920 5.612670 3.834760 5.377990 0.191280 3.908810 1.817100 1.910610 5.691740 3.522370 3.443360 5.376710 5.250940 5.360270 5.848220 7.124040 0.057538 5.769510 3.664370 1.636390 0.381434 5.278680 3.576660 0.171560 7.080300 5.461390 0.319858 1.635810 7.108390 0.230385 5.415770 1.816410 2.064590 7.091000 3.547500 1.993770 1.736070 5.339590 2.088180 3.407760 0.014790 2.039930 
7.053120 0.011968 2.222520 1.855020 1.926940 2.081280 3.643680 3.582030 2.180030 5.213890 5.372680 2.055320 1.902440 0.007714 3.878570 3.595680 1.712390 3.835530 5.440840 3.749180 3.958830 7.111930 5.390040 3.780690 3.601750 7.078250 5.674960 5.335230 1.811720 5.736360 0.025255 3.582010 5.588600 1.915040 5.286170 5.640390 5.386920 0.009462 0.346431 0.028062 1.814850 0.408675 1.794710 3.581100 0.357986 3.460610 5.249470 0.253912 0.019437 1.635090 3.858540 1.623040 3.808400 3.849060 3.646550 5.361160 3.829580 5.428540 7.130050 3.936660 1.858500 1.811050 5.905900 3.738490 3.468070 5.423570 5.409000 5.317540 5.674830 0.058597 7.111960 5.596170 3.655490 1.846440 0.308918 5.293380 3.580400 0.214299 7.101720 5.396060 0.357279 1.688660 0.009777 0.555926 5.351670 1.875570 2.200300 7.016720 3.618960 1.989200 1.720730 5.287210 2.080410 3.646420 0.033588 2.074510 
7.093430 7.099420 1.951890 1.780500 1.920310 2.234220 3.674900 3.587310 2.064520 5.347580 5.399910 2.107310 1.661700 7.066110 3.918080 3.580190 1.643570 3.758740 5.066170 3.505270 3.965430 6.958710 5.192410 3.823540 3.648610 7.161920 5.530900 5.388900 1.757680 5.590830 6.938430 3.476310 5.574900 1.726050 5.363210 5.718230 5.358480 7.156330 0.413714 0.161193 1.789050 0.238488 1.925610 3.761440 0.276414 3.529120 5.496700 0.410838 0.037788 1.776110 3.954670 1.998000 3.700190 3.962670 3.558680 5.443050 3.831220 5.315730 6.987970 3.889380 1.799800 1.788580 5.446740 3.602220 3.631570 5.879940 5.307690 5.410220 5.732370 0.084199 0.020401 5.629320 3.501560 1.820150 0.349749 5.459080 3.650900 0.336556 0.015673 5.273780 0.256991 1.840470 7.126780 0.365893 5.474550 1.817070 2.193580 0.121176 3.615830 2.210760 1.865290 5.448900 2.186210 3.635800 0.060310 2.051150 
0.015125 7.132050 2.128830 1.800990 1.776600 2.121210 3.573930 3.563410 2.079420 5.497940 5.410210 1.999830 1.710520 0.064274 3.726360 3.691830 1.742870 3.956670 5.314430 3.843230 3.901120 0.128511 5.402540 4.090940 3.421010 7.158120 5.598170 5.515770 1.904440 5.753650 7.120580 3.629890 5.600950 1.868690 5.289080 5.792790 5.584930 0.036606 0.202004 0.091048 1.694340 0.334254 1.703430 3.505360 0.344019 3.564620 5.287480 0.381319 7.084670 1.633320 3.916760 1.754530 3.487730 3.954110 3.399730 5.370040 3.811150 5.276320 7.113080 3.793100 1.676560 1.757600 5.640170 3.454330 3.577990 5.662690 5.320430 5.397210 5.762850 0.076230 7.091220 5.642210 3.687290 1.734190 0.245628 5.392210 3.657580 0.365262 0.087477 5.432070 0.223544 1.772010 0.044837 0.372279 5.450910 1.987050 2.124150 0.025872 3.613910 2.289320 1.609390 5.264070 2.073280 3.622160 0.018703 1.967180 
0.003394 0.108333 2.102990 1.709260 1.735540 2.096290 3.501460 3.574910 2.104080 5.408460 5.405720 2.139490 1.679560 7.037360 3.879960 3.645100 1.700910 3.859940 5.382450 3.519070 3.752030 0.049053 5.373540 3.915280 3.684680 7.106220 5.674040 5.377480 1.885790 5.882780 0.000659 3.494160 5.677870 1.821720 5.190750 5.812190 5.400670 0.051790 0.262575 0.074194 1.702060 0.291288 1.735500 3.530090 0.349048 3.454970 5.576140 0.207341 0.071682 1.769110 4.014180 1.807410 3.508670 3.774540 3.556810 5.396580 3.879390 5.516210 0.161734 3.853430 1.871900 1.595620 5.736400 3.612840 3.558850 5.632070 5.343800 5.287550 5.515440 0.007332 7.120730 5.716180 3.578850 1.740790 0.357093 5.252910 3.792940 0.297131 7.128210 5.476530 0.357935 1.779510 0.068054 0.360875 5.393730 1.779550 1.951220 7.143030 3.681310 2.171500 1.659540 5.490740 2.056520 3.641100 0.036176 2.174150 
0.114378 0.010921 2.191380 1.794260 1.795410 1.952610 3.532910 3.621550 2.145990 5.256620 5.482930 2.101260 1.821460 0.098614 3.913190 3.508330 1.880540 3.674230 5.247690 3.521850 3.942340 6.881700 5.217880 3.920350 3.690490 0.178170 5.445600 5.302780 1.796500 5.603680 0.251857 3.495900 5.590160 1.876370 5.422300 5.675410 5.513500 7.102950 0.466350 6.990520 1.948050 0.501986 1.836960 3.742230 0.346329 3.684590 5.218410 0.266889 7.113970 1.835350 3.825590 1.886920 3.614660 3.887780 3.568470 5.354570 3.955480 5.480840 7.097410 3.875650 1.913470 1.705720 5.687780 3.482840 3.480940 5.622190 5.373500 5.307100 5.799920 0.057581 0.085108 5.593560 3.610780 1.724700 0.338921 5.361210 3.519020 0.451057 7.048860 5.205900 0.332185 1.725350 7.138450 0.261828 5.379430 1.722600 2.081640 0.031088 3.639690 2.164680 1.741690 5.582160 2.121120 3.540710 7.073540 2.118090 
7.052500 0.038146 1.974070 1.657360 1.747180 2.161980 3.711740 3.690380 2.164410 5.408110 5.323000 2.093290 1.725000 0.048030 3.766580 3.740140 1.797110 3.834680 5.444420 3.802730 3.989990 7.141420 5.513900 3.863940 3.660070 7.108820 5.737590 5.466950 1.719010 5.727250 0.085373 3.677940 5.594250 1.673240 5.592060 5.645650 5.333840 7.145340 0.473519 0.110246 1.844160 0.278179 1.801530 3.658500 0.273797 3.624740 5.357170 0.425898 7.014280 1.669650 4.039650 1.774100 3.595870 3.873480 3.586980 5.361670 3.801630 5.385490 6.969120 3.872670 1.932120 1.560560 5.544710 3.629190 3.657280 5.538650 5.482420 5.332610 5.798040 7.024560 7.153900 5.776680 3.559350 1.834130 0.306232 5.479840 3.513260 0.183241 7.118610 5.351790 0.426467 1.779100 7.119290 0.288993 5.333370 1.761830 1.992520 7.059970 3.521110 2.238980 1.679280 5.285390 2.086730 3.473440 0.034011 2.081490 
0.019707 7.042220 2.214890 1.697070 1.918670 1.961350 3.666330 3.599550 2.102060 5.493180 5.299700 2.119510 1.799300 0.075797 3.879370 3.422790 1.846540 3.753060 5.323420 3.548350 3.945310 0.104608 5.363230 3.954990 3.462230 7.024210 5.610290 5.190980 1.708560 5.724150 0.119333 3.752410 5.702970 1.832380 5.465260 5.602970 5.351630 7.045880 0.411603 7.093750 1.911030 0.162927 1.889690 3.630700 0.423200 3.531470 5.425860 0.305235 0.042359 1.867560 3.767070 1.873790 3.593160 3.809110 3.470300 5.275360 3.914020 5.291890 0.030570 3.878810 1.689280 1.911520 5.679850 3.516200 3.631120 5.770200 5.332100 5.255480 5.704820 7.152540 7.146990 5.547130 3.535300 1.633010 0.367430 5.352770 3.644190 0.287036 0.273859 5.425310 0.327351 1.805730 0.010064 0.384162 5.496440 1.806840 2.105570 7.155340 3.545110 2.109740 1.890820 5.340650 2.102580 3.580690 7.010010 2.226480 
0.085634 7.113460 2.128970 1.737020 1.941850 2.051090 3.718680 3.426630 2.061980 5.355610 5.228810 2.019680 1.619180 0.023810 3.927900 3.587170 1.910810 3.835330 5.477320 3.691540 3.890870 7.087290 5.415750 3.801520 3.664740 7.139940 5.498590 5.464120 1.728770 5.590190 7.146260 3.592360 5.772410 1.698950 5.376760 5.844070 5.530840 0.027516 0.259839 7.154540 1.793210 0.207492 1.702740 3.542760 0.455490 3.675620 5.396940 0.412054 7.142190 1.893770 3.990610 1.731720 3.518510 3.847800 3.478500 5.381930 3.932510 5.492310 7.106160 3.756780 1.943180 1.802770 5.823780 3.549570 3.673280 5.683600 5.240190 5.427880 5.849940 7.105190 7.115380 5.648120 3.574530 1.796370 0.304880 5.416480 3.562220 0.287622 0.004770 5.337260 0.373400 1.712800 7.139010 0.424883 5.433970 1.694150 1.867510 7.132460 3.553640 2.045200 1.795860 5.378250 2.029870 3.489290 0.053468 2.231250 
0.142029 0.052952 2.009810 1.674790 1.709780 2.051040 3.423420 3.567210 2.222280 5.437270 5.422720 2.035710 1.800640 0.110089 3.760720 3.545840 1.771230 3.865020 5.380560 3.466120 3.837230 7.041750 5.343540 3.882400 3.464790 0.067480 5.706950 5.262150 1.781080 5.635920 0.112793 3.450920 5.719850 1.781360 5.418630 5.586610 5.259360 0.093160 0.308986 0.005353 1.704990 0.302390 1.825920 3.591330 0.406845 3.682750 5.204640 0.357134 0.146920 1.811790 3.894660 1.775650 3.634900 3.975010 3.611940 5.370010 4.030650 5.287840 0.049592 3.769910 1.878960 1.766460 5.674450 3.538640 3.499770 5.684810 5.328820 5.331630 5.661650 7.098710 0.071994 5.734090 3.646300 1.915180 0.348905 5.456800 3.418950 0.403515 7.149080 5.432860 0.330922 1.857040 7.034230 0.132362 5.434980 1.837140 2.163590 0.136100 3.437030 2.209050 1.709850 5.438180 2.148030 3.558900 0.324058 2.004730 