-213734.8821916774
-213732.7828662890
-213734.6850831566
-213734.7906577501
-213734.7386619645
-213732.4071687715
-213733.9918064686
-213733.7529782694
-213734.0817162844
-213734.2520195506
-213734.2528080005
-213734.8243038107
-213734.1976080743
-213734.4719049527
-213734.2745186036
-213733.9508461239
-213734.8391899347
-213733.1572001081
-213734.0625313059
-213734.7516643804
-213733.7516979738
-213733.9001326748
-213734.9548852585
-213733.5642013303
-213734.5208127904
-213732.7613652136
-213734.2979450206
-213733.4683960319
-213734.0338073766
-213734.2501914898
-213734.0549972899
-213734.9710433786
-213734.2689812229
-213733.7253543603
-213734.1452169073
-213734.3693155841
-213733.4742496089
-213734.7101848425
-213733.9618320401
-213734.4551356649
-213734.0383660999
-213734.1019045466
-213733.9020004642
-213733.5872289644
-213734.2683916883
-213734.4012588923
-213733.1956721077
-213733.7667842374
-213733.8595029484
-213734.4015372648
-213733.8557838324
-213733.9035953235
-213734.1218768865
-213734.8070381873
-213734.6075075811
-213733.9780259432
-213734.4240402634
-213734.2569569203
-213733.6199907910
-213733.1737911613
-213734.2274083500
-213733.9321099972
-213733.0381211847
-213735.0476194799
-213734.1651062525
-213734.0518504294
-213734.8935038581
-213734.6582798068
-213733.5753222150
-213733.6819626784
-213733.8789600407
-213734.5944971379
-213733.8940101133
-213734.0686179484
-213734.4693930698
-213734.1331765499
-213732.9633037552
-213734.6061681007
-213733.9876831275
-213732.9145791861
-213733.1503903230
-213733.8013299064
-213734.8933811348
-213734.2966624120
-213734.2162005249
-213733.8978911370
-213733.8787873845
-213734.1221884569
-213733.4894153299
-213733.9263788715
-213733.9230294221
-213734.2309314079
-213733.9677691560
-213733.8084580646
-213734.9754914875
-213733.8518798151
-213733.7700706924
-213734.3284492547
-213733.8822547952
-213733.7726491071
-213733.7656408151
-213733.6816379105
-213734.4783065669
-213734.0900100423
-213733.6879954423
-213734.0589455257
-213734.0148490690
-213734.1467610173
-213734.0228707130
-213733.8236526296
-213734.4025304803
-213733.7233645278
-213734.4831284243
-213734.0501899907
-213734.1256200846
-213734.5431993243
-213734.5156238515
-213734.8006202462
-213735.3423130597
-213733.5236317411
-213734.7114675871
-213733.2550733355
-213733.7320966611
-213733.5985529821
-213734.0184613803
-213734.8734662109
-213732.9461558209
-213733.1501069165
-213733.6477175592
-213734.3782943886
-213734.9284349763
-213734.1048816081
-213734.4163014817
-213734.7529437236
-213735.8667454198
-213734.5022509526
-213734.1073937631
-213733.3648074613
-213733.1375624682
-213734.2788320163
-213733.6814194031
-213734.1760840053
-213734.2493234467
-213733.0592090553
-213734.7327253928
-213733.5075511734
-213734.2220992728
-213733.9724854332
-213734.5338296283
-213733.3588455830
-213733.8087470495
-213734.1374575810
-213731.2173364261
-213732.9012276482
-213732.6268639659
-213732.8905103084
-213732.5791141087
-213732.0612199639
-213732.0314350627
-213731.8422570278
-213731.9442386301
-213732.1202414569
-213731.9189181647
-213732.4216899907
-213733.5945033838
-213732.1434073249
-213733.1376922665
-213732.6436478118
-213731.6165864854
-213732.1421761458
-213730.7310455833
-213732.9123490771
-213732.9787026776
-213734.1374185327
-213732.8798766435
-213733.4065287724
-213733.0253178201
-213731.8288660334
-213732.5175498479
-213732.7842048170
-213732.3468007231
-213732.4320595691
-213733.2545321011
-213732.0251767164
-213732.7624154370
-213733.2542365855
-213732.7850400705
-213732.7874458290
-213732.0428696947
-213732.7708354557
-213731.4991029655
-213731.8189990493
-213731.9853539437
-213733.4054642630
-213733.4080769641
-213733.0165277266
-213731.4812373310
-213733.3380117307
-213733.0982085476
-213733.3181206168
-213733.6600473096
-213733.3442982408
-213731.1288120779
-213733.7512464008
-213733.1947363082
-213732.5434299154
-213732.0673155862
-213733.4883675555
-213733.1209754967
-213732.8524331459
-213733.2341341752
-213731.8658346040
-213732.3364348183
-213733.7194620071
-213732.7960945594
-213732.3618669864
-213731.6407316911
-213732.4698768628
-213733.2193885981
-213732.1049033519
-213731.7842703838
-213732.6994012175
-213731.7242781247
-213731.7699459028
-213732.7301194692
-213733.4642173157
-213733.3993052382
-213732.2760719401
-213734.3939918199
-213732.7343312473
-213730.3734398268
-213733.8165127705
-213733.1948737257
-213732.0741589773
-213731.8979433574
-213732.4128672435
-213732.4093156137
-213731.2296261758
-213733.4180389159
-213733.8030664009
-213733.2671542379
-213732.7268761443
-213732.8361399213
-213731.6494730763
-213732.0756170993
-213732.9601645138
-213732.1186706797
-213733.8579841450
-213733.0562533547
-213732.1019186712
-213732.3957058397
-213733.4680508555
-213731.3792320548
-213733.4420853443
-213733.2175033933
-213732.8150130023
-213733.2780685882
-213731.2028975213
-213732.1365463824
-213733.0853846385
-213732.2236477112
-213731.7838246613
-213732.5036558510
-213731.6028213344
-213732.4338206899
-213731.8995554959
-213733.1982533796
-213732.7288935963
-213733.1336013070
-213731.8360607235
-213732.5210235172
-213733.1983687559
-213731.0143024902
-213732.5723556171
-213732.9188863401
-213732.9638361459
-213732.2226263319
-213731.5992429013
-213733.4004788653
-213733.0391858301
-213731.9211062322
-213732.0666407438
-213732.6129000358
-213732.3151167394
-213732.0222208798
-213732.3385393468
-213732.8975224100
-213732.8151913730
-213731.8381634832
-213733.2713175797
-213732.3520974191
-213732.6006041635
-213731.6628661116
-213733.3018009971
-213733.3097475377
-213733.7406638934
-213732.8059161004
-213731.8047557943
-213731.8151782988
-213731.7896012301
-213733.2174897876
-213732.3989214090
-213732.2076486417
-213733.3591972902
-213732.2369004718
-213731.8527045668
-213732.2025096357
-213732.3840177337
-213731.9191476928
-213732.7499235067
-213732.4062423599
-213733.5137703353
-213731.7714738220
-213734.1145432823
-213732.3036608826
-213732.5046347806
-213732.3789811785
-213732.8598253906
-213732.8951004607
-213732.7774114949
-213732.1528936217
-213732.0271159357
-213734.3145894081
-213732.3173878015
-213732.7235222051
-213732.6924278921
-213731.7813293774
-213733.3455147258
-213733.3122798292
-213732.3905880585
-213731.7924140709
-213733.0531722096
-213731.5633592486
-213732.7445352444
-213733.0504139276
-213730.9098321347
-213732.1578831011
-213732.3114964007
-213732.4437182868
-213731.9975217863
-213732.1383773004
-213732.8101520967
-213733.2017592944
-213732.7074898016
-213733.5739506251
-213732.1086778430
-213731.9016186631
-213732.9655145441
-213733.2530180597
-213731.4063179948
-213732.2720868329
-213732.5524455913
-213733.2393331823
-213733.9221185210
-213733.4659823822
-213731.0642300746
-213731.9388710485
-213733.8096167254
-213733.4725454960
-213732.1054711174
-213732.6242863675
-213731.5810120901
-213733.0314150751
-213732.3615808587
-213732.5930509635
-213733.5254106853
-213732.9917714893
-213733.5241109336
-213732.4060880713
-213733.9441757972
-213732.4306833533
-213734.0391755025
-213732.1028758316
-213731.4634937396
-213733.9460864446
-213733.6097012142
-213731.9729967097
-213732.7379490009
-213732.4010879794
-213731.2028832353
-213733.4583497249
-213732.1572809132
-213732.0193219149
-213733.8890694782
-213732.6181628536
-213733.0798748773
-213732.4720988084
-213731.9215715468
-213732.5801859651
-213732.9899226117
-213732.5127269021
-213733.8490730968
-213732.7655251540
-213731.8566130740
-213732.6409058567
-213731.2324651395
-213732.7118604941
-213731.7539552688
-213733.2756903131
-213732.9078996076
-213733.1845731282
-213734.0416189488
-213733.0759775268
-213732.2952328365
-213733.8154753365
-213731.8663763827
-213732.1439949547
-213733.3889643679
-213732.8281992311
-213733.9200768509
-213731.2228633304
-213732.2004478291
-213732.0955272612
-213732.0664117600
-213733.1866922148
-213733.0509410122
-213733.1914732550
-213732.3325725704
-213733.6135479515
-213733.0985988949
-213734.2413434360
-213733.0261664072
-213730.5310702071
-213731.2547232357
-213732.7848796594
-213731.8341613688
-213732.6822131465
-213731.8942470990
-213733.1834321549
-213732.7832679291
-213733.1525866899
-213732.1538728234
-213733.6581860509
-213731.9986367728
-213731.8452604844
-213732.7986758313
-213731.2794060023
-213732.6715758081
-213732.4875878006
-213732.1320212652
-213732.1928833363
-213732.1513710087
-213733.1166113348
-213732.9313861617
-213732.9050353372
-213732.7764294361
-213733.4441795324
-213733.1541045410
-213732.4177450203
-213734.0419200427
-213733.5719032405
-213733.7748310520
-213731.7355896251
-213732.7855523248
-213733.2302354641
-213732.8662860536
-213731.4849937266
-213732.4166500341
-213731.7948907150
-213732.5015188049
-213732.5370097974
-213732.9046556024
-213733.5927947810
-213733.3578159043
-213732.4901263506
-213731.7914975915
-213732.5663949634
-213732.7171227677
-213733.1926730050
-213733.1018105186
-213731.8059741841
-213733.8743599562
-213733.7249778908
-213732.7401850964
-213732.0172411964
-213731.1601791851
-213732.3929799392
-213732.5811663913
-213733.0498496996
-213733.4433759802
-213734.4355838769
-213732.0656678008
-213734.0383228338
-213732.9022027682
-213733.3258527317
-213732.2258393162
-213732.2040297997
-213732.0771364469
-213731.9890772774
-213732.9991539379
-213733.0253136024
-213733.0132675306
-213733.4197533692
-213734.5176290584
-213733.5365390531
-213732.2139797785
-213733.3768185664
-213731.8700361779
-213732.4427295611
-213733.9775011716
-213732.5244450766
-213734.1977404577
-213734.1316705359
-213732.5329821043
-213732.8360325723
-213731.9961617613
-213733.1979509251
-213731.9322845329
-213733.4340476455
-213732.5986490256
-213732.7054511246
-213733.0486662765
-213733.2341733596
-213731.6504129575
-213730.9797618554
-213732.9087241125
-213732.4641256006
-213732.6090972448
-213733.0948493022
-213732.8138025039
-213732.8922414966
-213734.0096853006
-213732.3037431970
-213732.6918633919
-213732.6743240219
-213733.3860157423
-213733.6144301446
-213733.3242427701
-213732.2906028194
-213733.2267934961
-213734.5382099809
-213732.9972710461
-213732.5817110272
-213732.6203545946
-213731.9001213567
-213732.4961139437
-213732.4753044456
-213733.0880569325
-213732.3033924423
-213731.0114727784
-213733.5232398971
-213732.0248115397
-213733.6570065735
-213733.1539329732
-213733.1410037560
-213731.3838111866
-213731.9587560398
-213733.4328473514
-213732.2439861803
-213731.7775740702
-213732.6328757771
-213731.3071726351
-213733.5852892009
-213732.8224764048
-213733.1498218772
-213731.7027604503
-213731.5666281522
-213731.7783676903
-213729.7755378170
-213731.3126206264
-213731.6170283983
-213730.1743667801
-213729.1703462853
-213732.3234430149
-213731.4113047532
-213731.7917310651
-213731.7146395802
-213730.7164790571
-213730.0262714050
-213730.3358274348
-213730.1352332717
-213731.8220027780
-213730.3163138789
-213730.6548232299
-213730.4116891013
-213730.7975519758
-213730.6331686823
-213732.3557218395
-213731.5873142467
-213731.4534104250
-213733.2981033782
-213730.5545340397
-213730.4779569859
-213732.5129350692
-213731.2183545401
-213731.2166721962
-213732.4921371359
-213731.7005435388
-213730.0050697908
-213731.7703425087
-213732.0935619189
-213732.6359343367
-213730.6223260340
-213732.1473646765
-213730.6618716588
-213730.1645053743
-213729.0890839754
-213730.8552331720
-213731.1042046869
-213731.4388713823
-213731.4919198403
-213731.1504317950
-213731.2126921231
-213730.0231808721
-213731.9765431695
-213731.1747911543
-213731.1635362536
-213733.4232429571
-213731.4396050012
-213731.2542101651
-213731.7888971355
-213730.2986802214
-213729.6043329015
-213731.5927249584
-213729.9636418185
-213730.5216409181
-213730.4519415418
-213732.0182969981
-213732.3267653889
-213732.4373883745
-213730.3521446055
-213732.2717211118
-213730.9139822790
-213731.0766596908
-213731.6233290583
-213730.8840410484
-213731.9796942478
-213729.6250278397
-213730.8863268047
-213729.9747454240
-213730.2052013604
-213731.4323304457
-213730.9414698591
-213729.9709563747
-213731.6986828243
-213731.1182478021
-213731.5475101137
-213730.2365803045
-213730.8444091635
-213730.4477411925
-213730.9322726832
-213730.6195465271
-213731.5663531812
-213731.2678721849
-213730.7229503325
-213731.1960288236
-213729.5322204196
-213732.2065435874
-213731.6758131523
-213731.7648932929
-213731.0699916771
-213730.7705883509
-213731.7915343268
-213730.4028711161
-213731.1546397636
-213731.6861376957
-213730.9422712344
-213732.1972002864
-213732.1576274502
-213732.1201336998
-213732.4109654399
-213728.9568955594
-213732.3106420993
-213731.8516012812
-213733.0893543713
-213731.9035940735
-213731.8143088951
-213730.3863376149
-213731.2788400055
-213730.2494398606
-213730.1898799904
-213731.6323269108
-213732.4059992261
-213732.1874481344
-213732.4972713799
-213732.2694946764
-213730.6714575493
-213732.5700880924
-213730.4958359540
-213731.5727552036
-213731.6164307002
-213731.2799786659
-213730.5937701350
-213731.4089886562
-213731.3069433792
-213731.8825928712
-213731.6825672900
-213730.4006544767
-213730.3737569755
-213731.9995192380
-213731.4907765540
-213731.8294053630
-213729.7746267798
-213731.8833950628
-213732.1524144292
-213730.4150616803
-213731.5916199041
-213731.9241979897
-213731.5429628193
-213730.9059107021
-213732.1637471545
-213730.7729100262
-213732.9465627672
-213732.4220408815
-213730.0717506083
-213731.1402095663
-213730.9205015825
-213730.0702278592
-213730.1371104491
-213731.5321409877
-213731.5583650072
-213730.0824267229
-213730.6425962025
-213731.9278904385
-213731.8091634944
-213730.9646304208
-213730.5028412528
-213730.6462138200
-213730.1842129475
-213731.2161630712
-213730.2112134437
-213732.2794257433
-213730.8611785874
-213729.9660932921
-213731.8003777547
-213732.2490077692
-213731.8496866882
-213731.1762388000
-213730.2104455385
-213731.2106878685
-213730.3212009075
-213730.4611751809
-213729.9441883997
-213731.3662250130
-213732.3577718091
-213730.5851071186
-213732.4597829358
-213729.8932964439
-213730.8834157308
-213730.7123135383
-213731.1526412234
-213731.1871362792
-213731.2056211087
-213730.2633010678
-213731.4753709647
-213729.4749578705
-213731.7300949663
-213731.6381712359
-213729.2003793544
-213731.2947581212
-213731.0448667255
-213730.0430138896
-213731.2355445159
-213731.0473010560
-213731.0997439246
-213731.4868446450
-213729.8749932504
-213731.9261177529
-213732.0377934109
-213733.6825130286
-213731.3792396740
-213730.7337268571
-213730.8056481790
-213732.2907051342
-213730.9152586290
-213732.1941841765
-213730.9793517798
-213729.6707689525
-213732.1547030427
-213729.7160058384
-213732.0093837731
-213729.1612190428
-213731.5382400114
-213731.7269491942
-213732.4281729670
-213730.7166777002
-213731.0950526819
-213730.2933122316
-213731.3954025561
-213730.0483229668
-213731.7013397439
-213731.0911715222
-213731.8753520579
-213730.3869251087
-213729.4699085260
-213732.1260242843
-213730.6055760663
-213729.4897601834
-213730.9190736651
-213730.9541487315
-213730.1198470025
-213731.2312987235
-213730.6578611089
-213731.0678191202
-213729.4110304370
-213731.9957432502
-213730.0329835012
-213730.4180796949
-213730.6766132903
-213732.0971286511
-213729.8052202673
-213732.7529511814
-213731.7377326577
-213731.5145194393
-213730.8110919525
-213731.7143956301
-213731.5000357718
-213729.7801588543
-213731.0107674593
-213730.1796070125
-213731.0409817561
-213731.5410475460
-213730.8715087092
-213731.2494987860
-213730.6499864064
-213730.4942398703
-213730.9728564224
-213731.5063416020
-213730.8444766478
-213730.9148286891
-213730.8675402009
-213731.2244532916
-213731.2550143976
-213730.1781450808
-213731.3810452854
-213730.8123998677
-213730.3961162980
-213730.9113825033
-213732.0898579053
-213730.2412948129
-213732.1321367776
-213731.0360494206
-213729.4618376294
-213731.6590136598
-213731.3381303470
-213730.3137920638
-213731.8941521313
-213730.8431739027
-213728.6725021689
-213730.1781268492
-213730.2585222044
-213731.8365435895
-213730.6273195952
-213732.3256449601
-213731.0097594135
-213730.4916051280
-213732.1179445439
-213730.0139026063
-213731.0672653685
-213729.8624009101
-213730.7585342518
-213731.4346074944
-213731.9924698567
-213729.9722565347
-213731.3911016607
-213730.6083367973
-213730.0896441345
-213731.0618630923
-213731.4225401978
-213731.6621659627
-213730.6108209246
-213730.4973831933
-213732.7842410082
-213732.1931838860
-213730.8920079976
-213728.8253437537
-213730.7881142513
-213730.4294871155
-213730.8379902701
-213731.3353153293
-213730.4771243176
-213731.7274479788
-213730.7164665398
-213730.1135791322
-213731.5834126784
-213730.3259238514
-213729.7203576191
-213731.5749627272
-213730.7971123758
-213731.0030493582
-213730.8498334809
-213730.5853686201
-213731.4845493647
-213730.1150597036
-213730.7951502990
-213730.6840497535
-213731.8356843900
-213731.6395264989
-213731.6502087360
-213730.6276253151
-213731.9739503327
-213731.9452479004
-213732.8925737476
-213731.2466577814
-213729.9463530654
-213732.8866208491
-213732.0331805370
-213731.8391798284
-213730.7451334613
-213731.6561738797
-213730.0972453626
-213731.1455707533
-213730.9374967248
-213732.6879415511
-213731.3734616086
-213730.0525712082
-213731.7353443145
-213729.9383770004
-213732.0662720296
-213730.8234093218
-213730.6437320057
-213730.4505698159
-213730.9151331845
-213730.6878989399
-213732.2839972558
-213731.1712823824
-213731.7274317881
-213731.9141409341
-213729.8964019432
-213729.6758902711
-213730.3821918244
-213729.9460696588
-213730.8201159279
-213732.4156389952
-213731.6838445924
-213729.7960386019
-213731.2657880649
-213730.0281272214
-213730.5859539369
-213730.5840794807
-213731.5938315094
-213732.3979106421
-213730.5144177921
-213732.0399612058
-213731.2593116194
-213730.3000897712
-213730.4567863928
-213731.9481601988
-213730.6637291079
-213730.9181724240
-213730.1633892994
-213730.5031726875
-213730.7114618220
-213731.0951605751
-213731.7694254851
-213730.1605250291
-213730.2586937722
-213730.6310580312
-213732.6244187509
-213730.3990549915
-213731.6423141692
-213731.2079769344
-213730.2732284611
-213731.4257798491
-213731.7698435880
-213731.9426886697
-213732.8821055280
-213730.3721422520
-213728.7503263205
-213730.5697223461
-213729.9650494634
-213730.7518470541
-213730.4612853870
-213730.4019045677
-213731.7157032732
-213732.0719653315
-213730.7721225288
-213731.5026977255
-213731.7061624175
-213731.5328590962
-213730.4708768558
-213732.6553508841
-213729.5485906524
-213731.5536698188
-213731.8450976242
-213730.9679685774
-213732.1312454687
-213729.0821486098
-213730.8066178567
-213730.5480212669
-213730.6175640417
-213731.4940091304
-213729.7016970040
-213731.0282943120
-213729.9069915256
-213731.3925759735
-213731.1541562172
-213729.9383129176
-213731.1390794775
-213729.1675179340
-213730.9300488328
-213731.3706687682
-213732.3525672237
-213730.9472959525
-213731.1362466363
-213732.6680384642
-213731.3593794450
-213730.0660622044
-213730.4016034737
-213731.6060287404
-213731.0711229904
-213731.8865220591
-213729.7946943595
-213731.6851768618
-213729.4737783931
-213731.4817523065
-213729.9881285271
-213730.2743679378
-213730.3613462712
-213731.5988620780
-213731.9912668414
-213731.8840822864
