0.431504 0.248267 4.402290 -0.835663 2.445040 4.402500 -2.102140 4.638740 4.402500 -3.369270 6.835570 4.402330 0.453810 0.349080 10.916100 1.737310 1.142510 8.796750 2.967620 0.249285 4.402330 1.700090 0.978866 2.054370 0.279743 1.770490 13.126400 -0.984216 2.381560 10.930500 0.576877 3.256330 8.676470 0.342162 1.763960 6.658640 1.700470 2.446090 4.402540 0.433042 3.175340 2.054160 -0.925395 3.994870 12.942600 -2.178530 4.569660 10.756300 -0.909463 5.277290 8.614020 -0.937865 3.921010 6.337330 0.433987 4.639790 4.402550 -0.833358 5.368900 2.054200 -2.219120 5.992320 12.993900 -3.420860 6.753770 10.836800 -2.014400 7.675150 8.620900 -2.131440 6.250580 6.603800 -0.833140 6.836630 4.402380 -2.100430 7.565340 2.054260 -3.558610 8.415250 13.040900 -3.446660 8.511430 6.775070 2.846880 0.329857 10.987100 4.219600 0.954391 8.866860 5.500690 0.249366 4.402390 4.235780 0.979776 2.054180 2.882200 1.712300 13.039400 1.658970 2.508000 10.899200 2.907030 3.162370 8.648400 2.879470 1.772660 6.318360 4.233540 2.446170 4.402610 2.968750 3.176280 2.053970 1.588400 3.719000 12.981000 0.416470 4.702530 10.716100 1.586290 5.329930 8.743210 1.689560 3.889770 6.504540 2.967060 4.639870 4.402610 1.702350 5.369850 2.054010 0.369072 6.146720 12.934800 -0.958848 6.718290 10.951100 0.451633 7.460880 8.647490 0.411888 6.026380 6.643820 1.699930 6.836710 4.402440 0.435275 7.566280 2.054080 -1.134830 8.253330 13.180600 -0.812775 8.258600 6.563500 5.254400 0.275839 10.900200 6.654770 1.048130 8.590700 8.036730 0.250423 4.402120 6.768700 0.979849 2.054210 5.387230 1.669600 13.194300 4.008360 2.539390 10.850100 5.454560 3.259970 8.756290 5.383560 1.663500 6.659250 6.769580 2.447220 4.402330 5.501670 3.176350 2.054000 4.124860 3.876890 12.761900 2.877230 4.823180 10.728700 4.316100 5.476850 8.598570 4.217040 3.959220 6.598660 5.503100 4.640920 4.402340 4.235270 5.369920 2.054040 2.880090 6.208080 13.080600 1.706650 6.864300 10.865000 2.764490 7.524040 8.728980 3.036530 6.027380 6.499890 4.235960 6.837730 4.402170 2.968190 7.566360 2.054100 1.727560 8.369940 12.857100 1.677320 8.365890 6.559390 8.060200 0.289244 10.741800 9.248220 0.914279 8.667180 9.304490 0.980819 2.054290 7.919410 1.744290 12.983700 6.684120 2.256050 10.787100 7.867570 3.239720 8.711690 7.952510 1.730540 6.495530 8.037460 3.177320 2.054090 6.827970 3.942320 12.996800 5.369970 4.507380 10.654500 6.842270 5.349330 8.807990 6.645550 3.937960 6.596690 6.771070 5.370880 2.054130 5.303360 6.129510 12.939700 4.329550 6.830280 10.774800 5.581270 7.596360 8.679860 5.497960 6.148620 6.469580 5.503970 7.567290 2.054190 3.977750 8.244920 13.537200 4.088760 8.291970 6.567990 
0.431504 0.248267 4.402290 -0.835663 2.445040 4.402500 -2.102140 4.638740 4.402500 -3.369270 6.835570 4.402330 0.619201 0.305131 10.973500 1.704370 1.031080 8.500510 2.967620 0.249285 4.402330 1.700090 0.978866 2.054370 0.694745 1.553220 13.191700 -0.828314 2.333090 10.957900 0.565188 3.203460 8.765340 0.611621 1.654320 6.519610 1.700470 2.446090 4.402540 0.433042 3.175340 2.054160 -0.481201 3.842170 13.010400 -2.057820 4.604570 10.648000 -0.668229 5.318550 8.632530 -0.645632 3.929030 6.428570 0.433987 4.639790 4.402550 -0.833358 5.368900 2.054200 -1.852350 5.917880 12.993600 -3.233180 6.772440 10.806500 -2.084510 7.500040 8.576120 -2.026180 6.038960 6.377140 -0.833140 6.836630 4.402380 -2.100430 7.565340 2.054260 -3.287340 7.993880 13.597900 -3.284340 8.224110 6.617110 3.129380 0.131218 10.651700 4.337060 0.854508 8.575360 5.500690 0.249366 4.402390 4.235780 0.979776 2.054180 3.177690 1.541690 12.788000 1.882650 2.358080 10.758200 3.033480 3.187180 8.490070 2.983960 1.659390 6.461450 4.233540 2.446170 4.402610 2.968750 3.176280 2.053970 2.070510 3.860650 13.002500 0.478677 4.480750 10.821500 1.846140 5.351200 8.658980 1.776680 3.854740 6.578840 2.967060 4.639870 4.402610 1.702350 5.369850 2.054010 0.761380 6.128210 13.060400 -0.620255 6.708790 10.747900 0.573115 7.454170 8.640150 0.560011 6.021330 6.495770 1.699930 6.836710 4.402440 0.435275 7.566280 2.054080 -0.692209 8.150260 12.886700 -0.815971 8.052430 6.354980 5.742080 0.108116 10.938000 6.866890 0.887280 8.708180 8.036730 0.250423 4.402120 6.768700 0.979849 2.054210 5.635040 1.464870 12.903000 4.281150 2.441600 10.639700 5.584290 3.198360 8.646820 5.571590 1.697900 6.477180 6.769580 2.447220 4.402330 5.501670 3.176350 2.054000 4.420200 3.673510 12.786800 3.137360 4.514870 10.626100 4.399400 5.341220 8.585090 4.290440 3.821090 6.448590 5.503100 4.640920 4.402340 4.235270 5.369920 2.054040 3.250520 5.997690 12.861800 1.888250 6.712130 10.850600 2.960720 7.480700 8.627040 3.019020 6.033460 6.494000 4.235960 6.837730 4.402170 2.968190 7.566360 2.054100 1.865850 8.288090 12.932400 1.713790 8.282720 6.677390 3.290260 8.755580 10.839600 9.375160 0.870714 8.794150 9.304490 0.980819 2.054290 8.133100 1.818600 12.943000 6.929320 2.230440 10.725300 8.277650 3.184860 8.446540 8.231660 1.616410 6.585010 8.037460 3.177320 2.054090 6.938300 3.883900 12.881600 5.728620 4.529130 10.805800 6.979780 5.362550 8.745850 6.902940 3.830840 6.638830 6.771070 5.370880 2.054130 5.790530 6.110600 12.968700 4.313990 6.687930 10.801300 5.632640 7.450820 8.747860 5.634060 6.034070 6.616460 5.503970 7.567290 2.054190 4.378210 8.322060 12.944000 4.195160 8.221340 6.700520 
0.431504 0.248267 4.402290 -0.835663 2.445040 4.402500 -2.102140 4.638740 4.402500 -3.369270 6.835570 4.402330 0.378253 0.275909 10.855600 1.675270 0.971420 8.738860 2.967620 0.249285 4.402330 1.700090 0.978866 2.054370 0.388463 1.911980 12.976100 -0.861436 2.556840 10.649900 0.566218 3.292600 8.651440 0.433439 1.841790 6.575440 1.700470 2.446090 4.402540 0.433042 3.175340 2.054160 -0.873020 4.030220 12.979600 -2.150210 4.645270 10.992300 -0.915237 5.354030 8.751640 -0.761795 3.857000 6.527500 0.433987 4.639790 4.402550 -0.833358 5.368900 2.054200 -2.229890 6.145170 13.662300 -3.347130 6.798760 10.886600 -2.149840 7.504650 8.790980 -2.118790 6.237600 6.494290 -0.833140 6.836630 4.402380 -2.100430 7.565340 2.054260 -3.376120 8.276340 13.097000 -3.395300 8.346110 6.423300 2.862180 0.221238 10.737900 4.258330 0.924458 8.569790 5.500690 0.249366 4.402390 4.235780 0.979776 2.054180 2.848790 1.720920 12.727000 1.453370 2.462190 10.786500 3.074720 3.124860 8.812900 2.786600 1.620560 6.386050 4.233540 2.446170 4.402610 2.968750 3.176280 2.053970 1.739210 3.913930 12.965700 0.383170 4.741610 10.917500 1.615800 5.244250 8.608960 1.834930 3.843650 6.435490 2.967060 4.639870 4.402610 1.702350 5.369850 2.054010 0.564635 6.328190 12.990300 -0.915636 6.788810 10.912100 0.479486 7.662680 8.737610 0.426788 5.950950 6.472580 1.699930 6.836710 4.402440 0.435275 7.566280 2.054080 -0.975373 8.076510 13.046500 -0.773122 8.259310 6.618700 5.621680 0.161267 10.876700 6.820010 1.060950 8.678510 8.036730 0.250423 4.402120 6.768700 0.979849 2.054210 5.571330 1.703300 12.992100 4.257070 2.356270 10.783100 5.568700 3.411570 8.768610 5.589580 1.621650 6.603290 6.769580 2.447220 4.402330 5.501670 3.176350 2.054000 4.212700 3.790750 12.875100 3.051490 4.673470 10.893000 4.140010 5.365610 8.729020 4.217750 3.577810 6.544590 5.503100 4.640920 4.402340 4.235270 5.369920 2.054040 2.855500 6.047780 12.963000 1.617620 6.727200 10.733500 3.042540 7.464260 8.822700 3.015890 6.068110 6.599910 4.235960 6.837730 4.402170 2.968190 7.566360 2.054100 1.780770 8.357900 12.997200 1.760280 8.278390 6.545950 8.004720 0.359662 10.850400 9.410860 0.889359 8.526950 9.304490 0.980819 2.054290 8.036650 1.708130 12.895100 6.732660 2.381490 10.900700 8.186130 3.141750 8.665890 8.045620 1.722190 6.448650 8.037460 3.177320 2.054090 6.850240 3.982230 13.028400 5.590380 4.608850 10.893900 6.851960 5.379930 8.904530 6.828670 4.025840 6.550730 6.771070 5.370880 2.054130 5.471710 5.983530 13.013900 4.345360 6.783140 11.051000 5.541570 7.406710 8.481300 5.565870 6.006390 6.483730 5.503970 7.567290 2.054190 4.315860 8.418740 13.136800 4.212890 8.284420 6.664450 
0.431504 0.248267 4.402290 -0.835663 2.445040 4.402500 -2.102140 4.638740 4.402500 -3.369270 6.835570 4.402330 0.572179 0.362614 10.768300 1.636460 1.045110 8.669810 2.967620 0.249285 4.402330 1.700090 0.978866 2.054370 0.500965 1.862910 13.336500 -0.874031 2.704960 10.904400 0.474905 3.281990 8.831950 0.557778 1.718750 6.549450 1.700470 2.446090 4.402540 0.433042 3.175340 2.054160 -0.936472 4.096810 12.996100 -2.239850 5.005180 10.941600 -0.829317 5.276020 8.754210 -0.741753 3.709700 6.769130 0.433987 4.639790 4.402550 -0.833358 5.368900 2.054200 -2.088420 6.357740 13.060100 -3.344120 6.979310 10.824800 -2.135120 7.546010 8.801500 -2.015730 6.163760 6.677700 -0.833140 6.836630 4.402380 -2.100430 7.565340 2.054260 -3.419760 8.586980 13.109700 -3.346230 8.164730 6.519870 2.924360 0.416730 10.966700 4.140700 0.993931 8.737950 5.500690 0.249366 4.402390 4.235780 0.979776 2.054180 2.884500 1.966650 12.926200 1.741480 2.581750 10.645500 2.936280 3.315410 8.665460 2.882390 1.770070 6.582180 4.233540 2.446170 4.402610 2.968750 3.176280 2.053970 1.636490 3.940650 13.421500 0.500988 4.743330 11.041200 1.680050 5.334020 8.875390 1.645940 3.953550 6.584590 2.967060 4.639870 4.402610 1.702350 5.369850 2.054010 0.375795 6.183800 12.991000 -0.657125 6.953840 10.841700 0.500705 7.515160 8.599630 0.320908 6.182210 6.549250 1.699930 6.836710 4.402440 0.435275 7.566280 2.054080 -0.811800 8.287640 12.835800 -0.842620 8.368680 6.614210 5.649260 0.406751 10.757600 6.650260 0.980620 8.675190 8.036730 0.250423 4.402120 6.768700 0.979849 2.054210 5.454940 1.796210 12.878200 4.315330 2.603200 10.631000 5.481570 2.973980 8.509830 5.376370 1.631730 6.405780 6.769580 2.447220 4.402330 5.501670 3.176350 2.054000 4.168950 3.962510 12.791100 2.941650 4.752220 10.942900 4.182740 5.400900 8.538900 4.153120 3.874670 6.473590 5.503100 4.640920 4.402340 4.235270 5.369920 2.054040 3.034840 6.240270 13.066700 1.769160 6.970830 10.827700 2.841750 7.482360 8.851780 2.883030 6.086550 6.413020 4.235960 6.837730 4.402170 2.968190 7.566360 2.054100 1.670320 8.474360 12.840300 1.623940 8.298000 6.446810 8.230660 0.577888 10.982300 9.219640 1.055140 8.744220 9.304490 0.980819 2.054290 8.093780 1.794120 13.201100 6.741650 2.622580 10.898000 8.034390 3.341770 8.826420 7.901860 1.836110 6.714420 8.037460 3.177320 2.054090 6.732390 4.021330 12.954400 5.562540 4.806920 10.726700 6.810200 5.450250 8.797820 6.954350 4.080260 6.810140 6.771070 5.370880 2.054130 5.588030 6.108680 12.929200 4.277380 6.997840 10.954400 5.327790 7.638730 8.566440 5.476760 5.993610 6.531910 5.503970 7.567290 2.054190 4.263580 8.442900 13.102900 4.200590 8.466490 6.671110 
0.431504 0.248267 4.402290 -0.835663 2.445040 4.402500 -2.102140 4.638740 4.402500 -3.369270 6.835570 4.402330 0.261315 0.233212 10.713000 1.501600 0.921828 8.690920 2.967620 0.249285 4.402330 1.700090 0.978866 2.054370 0.250097 1.505470 12.949700 -0.847320 2.342340 10.860600 0.272242 3.145720 8.593490 0.439111 1.744720 6.367940 1.700470 2.446090 4.402540 0.433042 3.175340 2.054160 -0.945846 3.642700 12.898800 -2.184860 4.622920 10.679800 -0.873126 5.388990 8.565980 -1.042340 3.879320 6.549940 0.433987 4.639790 4.402550 -0.833358 5.368900 2.054200 -2.301290 5.881050 12.717800 -3.483480 6.903280 10.827700 -2.179060 7.659730 8.644940 -2.260230 6.113120 6.487110 -0.833140 6.836630 4.402380 -2.100430 7.565340 2.054260 -3.560090 8.158890 12.979300 -3.425820 8.288640 6.412160 2.793750 0.115146 10.944700 4.163970 0.932258 8.723760 5.500690 0.249366 4.402390 4.235780 0.979776 2.054180 2.924410 1.399420 12.907900 1.474570 2.239070 11.101900 2.908020 3.024320 8.704190 2.980450 1.795600 6.550900 4.233540 2.446170 4.402610 2.968750 3.176280 2.053970 1.765060 3.705400 13.092000 0.407505 4.634250 10.779100 1.737530 5.338650 8.667020 1.666240 3.870140 6.586060 2.967060 4.639870 4.402610 1.702350 5.369850 2.054010 0.262419 5.937080 12.738100 -0.848599 6.811530 10.681600 0.461762 7.582680 8.809630 0.404073 6.200010 6.557820 1.699930 6.836710 4.402440 0.435275 7.566280 2.054080 -0.962512 8.027500 13.047600 -0.962756 8.424140 6.603890 5.489840 0.143896 10.856500 6.731920 0.949856 8.665660 8.036730 0.250423 4.402120 6.768700 0.979849 2.054210 5.487050 1.398840 13.213600 4.162840 2.312920 10.775400 5.521550 3.097460 8.779750 5.434100 1.667300 6.542210 6.769580 2.447220 4.402330 5.501670 3.176350 2.054000 4.182920 3.526230 13.255700 2.917240 4.492120 10.823700 4.412790 5.342580 8.670330 4.215790 3.833510 6.732790 5.503100 4.640920 4.402340 4.235270 5.369920 2.054040 2.726730 5.892550 12.994700 1.680190 6.673530 10.887400 2.795460 7.444140 8.670480 3.047610 6.064830 6.596360 4.235960 6.837730 4.402170 2.968190 7.566360 2.054100 1.752980 8.007270 12.905600 1.726580 8.283480 6.484860 8.022740 0.041221 10.697600 9.269080 1.077850 8.563080 9.304490 0.980819 2.054290 8.037970 1.453980 12.865600 6.761170 2.340650 10.758500 7.961020 3.214390 8.647240 7.996290 1.657640 6.476480 8.037460 3.177320 2.054090 6.707400 3.559280 12.977900 5.529120 4.445340 10.897000 6.859500 5.423540 8.550650 6.661680 3.916490 6.426450 6.771070 5.370880 2.054130 5.426930 5.760720 13.122000 4.130330 6.698680 10.725700 5.423950 7.596770 8.672010 5.526750 6.144030 6.613620 5.503970 7.567290 2.054190 4.148520 7.975870 13.347700 4.307040 8.293660 6.614580 
0.431504 0.248267 4.402290 -0.835663 2.445040 4.402500 -2.102140 4.638740 4.402500 -3.369270 6.835570 4.402330 0.543595 0.087212 10.776300 1.687650 0.773306 8.682040 2.967620 0.249285 4.402330 1.700090 0.978866 2.054370 0.532804 1.493430 12.791600 -0.877787 2.360940 10.829300 0.388609 3.050420 8.508350 0.461081 1.672150 6.405790 1.700470 2.446090 4.402540 0.433042 3.175340 2.054160 -0.800024 3.799010 12.864000 -2.115930 4.499120 10.870900 -0.901644 5.322690 8.416200 -0.785205 3.844720 6.477560 0.433987 4.639790 4.402550 -0.833358 5.368900 2.054200 -2.074890 5.838330 13.094100 -3.353870 6.656820 10.813200 -1.970800 7.537040 8.613940 -2.111720 6.013740 6.380110 -0.833140 6.836630 4.402380 -2.100430 7.565340 2.054260 -3.446390 8.045600 13.168300 -3.342190 8.163360 6.575720 2.905520 0.089741 11.054200 4.212310 0.976982 8.785460 5.500690 0.249366 4.402390 4.235780 0.979776 2.054180 3.036840 1.296870 13.210700 1.634480 2.443990 10.498000 3.110860 3.205000 8.509900 3.056240 1.784650 6.578720 4.233540 2.446170 4.402610 2.968750 3.176280 2.053970 1.830070 3.617600 12.997100 0.343851 4.706350 10.480300 1.763880 5.312080 8.455400 1.836340 3.863070 6.432270 2.967060 4.639870 4.402610 1.702350 5.369850 2.054010 0.685583 5.937730 12.832500 -0.794636 6.635920 10.708500 0.423782 7.478850 8.589330 0.459362 5.992340 6.488060 1.699930 6.836710 4.402440 0.435275 7.566280 2.054080 -0.859125 7.965140 12.832300 -0.858938 8.199760 6.574820 5.455030 0.117692 10.782600 6.765200 0.955811 8.596030 8.036730 0.250423 4.402120 6.768700 0.979849 2.054210 5.463220 1.403860 13.127300 4.175650 2.467880 10.596000 5.482300 3.104060 8.481920 5.475120 1.711180 6.523660 6.769580 2.447220 4.402330 5.501670 3.176350 2.054000 4.394650 3.680850 12.863600 3.017300 4.598090 10.754800 4.424290 5.352670 8.669280 4.356840 4.020800 6.493530 5.503100 4.640920 4.402340 4.235270 5.369920 2.054040 3.098900 5.787300 12.782000 1.785720 6.857840 10.855700 3.003530 7.384380 8.781530 3.229670 6.192450 6.452520 4.235960 6.837730 4.402170 2.968190 7.566360 2.054100 1.825450 8.130990 12.893100 1.645110 8.209120 6.499270 7.990120 0.202947 10.814400 9.315750 0.921655 8.740520 9.304490 0.980819 2.054290 8.092850 1.416030 13.006400 6.723600 2.358300 10.602900 8.135420 3.117190 8.499210 8.076090 1.600340 6.688350 8.037460 3.177320 2.054090 6.852550 3.601080 13.103100 5.561670 4.427180 10.711700 6.815260 5.414220 8.726330 6.818680 3.696120 6.383970 6.771070 5.370880 2.054130 5.654260 5.887990 12.897800 4.373640 6.690420 10.845000 5.393130 7.578750 8.683450 5.634920 5.976600 6.754320 5.503970 7.567290 2.054190 4.257460 7.978060 12.764500 4.231490 8.366950 6.434610 
0.431504 0.248267 4.402290 -0.835663 2.445040 4.402500 -2.102140 4.638740 4.402500 -3.369270 6.835570 4.402330 0.561347 0.128569 10.778000 1.708530 1.126320 8.457470 2.967620 0.249285 4.402330 1.700090 0.978866 2.054370 0.589807 1.348100 13.465200 -0.786962 2.597620 10.532900 0.439890 3.308280 8.705470 0.404458 1.807770 6.353680 1.700470 2.446090 4.402540 0.433042 3.175340 2.054160 -0.821734 3.995420 12.904500 -2.137780 4.574520 10.643300 -0.913588 5.418820 8.619510 -0.854489 3.921620 6.587640 0.433987 4.639790 4.402550 -0.833358 5.368900 2.054200 -1.946490 6.138200 12.884600 -3.664850 6.720270 10.979600 -2.083140 7.679580 8.573470 -2.157460 6.241370 6.507970 -0.833140 6.836630 4.402380 -2.100430 7.565340 2.054260 -3.282380 8.195730 13.040000 -3.407070 8.321100 6.537580 2.989900 0.231058 10.894600 4.093530 1.115120 8.883150 5.500690 0.249366 4.402390 4.235780 0.979776 2.054180 3.125010 1.549400 13.090600 1.838940 2.325790 10.830700 2.860910 3.319070 8.701120 2.959870 1.746140 6.449240 4.233540 2.446170 4.402610 2.968750 3.176280 2.053970 1.553460 3.836060 13.115000 0.554225 4.678500 10.834900 1.730090 5.358780 8.633290 1.559390 3.963390 6.548790 2.967060 4.639870 4.402610 1.702350 5.369850 2.054010 0.471145 6.074370 12.874900 -0.823652 6.847450 10.814900 0.451821 7.641200 8.662700 0.446974 6.176870 6.688780 1.699930 6.836710 4.402440 0.435275 7.566280 2.054080 -0.660560 8.285070 13.009800 -0.850328 8.439790 6.630760 5.559450 0.189625 10.607200 6.776090 1.029880 8.539510 8.036730 0.250423 4.402120 6.768700 0.979849 2.054210 5.752290 1.497170 12.865300 4.245380 2.382830 11.061600 5.365120 3.124400 8.763410 5.381860 1.794310 6.537420 6.769580 2.447220 4.402330 5.501670 3.176350 2.054000 4.201810 3.693630 13.006900 2.975410 4.597580 10.884500 4.313620 5.438660 8.530890 4.134610 3.972050 6.516260 5.503100 4.640920 4.402340 4.235270 5.369920 2.054040 3.006440 6.055580 12.772300 1.623150 6.858750 10.593500 2.938710 7.538290 8.474850 2.978750 6.224370 6.402970 4.235960 6.837730 4.402170 2.968190 7.566360 2.054100 1.726840 8.289530 12.665700 1.692030 8.292760 6.587370 8.164830 0.224176 10.804200 9.284310 1.011210 8.569790 9.304490 0.980819 2.054290 8.320520 1.766950 12.844100 6.806910 2.356930 10.669300 7.955470 3.259060 8.617270 7.723260 1.819650 6.347760 8.037460 3.177320 2.054090 6.764540 3.786890 12.854200 5.436820 4.480880 10.759900 6.686950 5.506730 8.497980 6.572050 3.898080 6.593870 6.771070 5.370880 2.054130 5.516020 5.802930 12.929900 4.183980 6.883310 10.624200 5.466620 7.632400 8.640790 5.410340 6.191130 6.506460 5.503970 7.567290 2.054190 4.361850 8.101150 12.853100 4.181150 8.434750 6.549860 
0.431504 0.248267 4.402290 -0.835663 2.445040 4.402500 -2.102140 4.638740 4.402500 -3.369270 6.835570 4.402330 0.373543 0.208489 10.833100 1.635200 0.953649 8.791490 2.967620 0.249285 4.402330 1.700090 0.978866 2.054370 0.248668 1.702070 13.169500 -1.134520 2.349250 11.044800 0.359916 3.163260 8.790230 0.431072 1.673950 6.617270 1.700470 2.446090 4.402540 0.433042 3.175340 2.054160 -1.032590 3.845720 13.101400 -2.354990 4.558620 11.057700 -0.849908 5.348500 8.691540 -1.024980 3.930580 6.579550 0.433987 4.639790 4.402550 -0.833358 5.368900 2.054200 -2.311560 5.947250 13.275900 -3.689790 6.741240 10.804400 -2.324550 7.430250 8.838590 -2.033560 6.224030 6.521100 -0.833140 6.836630 4.402380 -2.100430 7.565340 2.054260 -3.678260 8.216600 12.997400 -3.389220 8.407730 6.532450 2.828500 0.247760 10.826500 4.081580 0.865265 8.697420 5.500690 0.249366 4.402390 4.235780 0.979776 2.054180 2.669580 1.620280 12.837900 1.514110 2.421290 10.747200 2.850050 3.133560 8.658740 2.909840 1.785980 6.614780 4.233540 2.446170 4.402610 2.968750 3.176280 2.053970 1.383300 3.849750 12.717700 0.203982 4.580780 10.844700 1.664950 5.388370 8.657800 1.564820 3.963200 6.604490 2.967060 4.639870 4.402610 1.702350 5.369850 2.054010 0.104951 6.105880 12.850400 -1.232430 6.730020 10.813700 0.417164 7.639370 8.838230 0.334433 6.015800 6.664040 1.699930 6.836710 4.402440 0.435275 7.566280 2.054080 -1.141270 8.449870 12.845800 -0.973596 8.277650 6.594340 5.359950 0.393640 11.044800 6.737190 0.937672 8.667990 8.036730 0.250423 4.402120 6.768700 0.979849 2.054210 5.317330 1.615180 13.710300 4.063340 2.260090 10.686100 5.553050 3.092210 8.867340 5.510540 1.648790 6.531940 6.769580 2.447220 4.402330 5.501670 3.176350 2.054000 4.034790 3.678360 12.803200 2.739950 4.542790 10.767500 4.237410 5.350770 8.634940 4.195380 3.985330 6.420410 5.503100 4.640920 4.402340 4.235270 5.369920 2.054040 2.857440 6.175310 12.742300 1.361230 6.610490 10.823900 2.917400 7.689250 8.534030 2.819600 6.115640 6.654080 4.235960 6.837730 4.402170 2.968190 7.566360 2.054100 1.501350 8.253160 13.010100 1.631630 8.311120 6.343680 7.817040 0.004191 10.916600 9.254860 1.129810 8.727010 9.304490 0.980819 2.054290 7.731930 1.622440 13.035100 6.658220 2.536760 11.052300 8.040630 3.083960 8.889040 7.946450 1.854040 6.498220 8.037460 3.177320 2.054090 6.492670 3.840980 12.922800 5.329600 4.634690 10.733900 6.812790 5.403030 8.692760 6.665500 3.938450 6.763530 6.771070 5.370880 2.054130 5.238700 6.127960 12.994800 4.026050 6.748930 10.796300 5.273270 7.481040 8.621890 5.509670 6.077710 6.526760 5.503970 7.567290 2.054190 4.011170 8.348090 13.120900 4.148780 8.410690 6.527200 
0.431504 0.248267 4.402290 -0.835663 2.445040 4.402500 -2.102140 4.638740 4.402500 -3.369270 6.835570 4.402330 0.636734 0.275705 10.824800 1.779210 1.138860 8.850570 2.967620 0.249285 4.402330 1.700090 0.978866 2.054370 0.555813 1.576920 12.824100 -0.694041 2.612480 10.737300 0.583012 3.290480 8.585660 0.339252 1.753810 6.504530 1.700470 2.446090 4.402540 0.433042 3.175340 2.054160 -0.657014 3.831360 13.015400 -1.820240 4.682610 10.881700 -0.876385 5.451040 8.715640 -0.810557 3.836380 6.571000 0.433987 4.639790 4.402550 -0.833358 5.368900 2.054200 -1.931420 6.268580 13.030400 -3.210980 6.833030 10.965700 -2.181650 7.602300 8.884830 -2.105860 6.112830 6.653770 -0.833140 6.836630 4.402380 -2.100430 7.565340 2.054260 -3.243960 8.278050 13.119900 -3.386510 8.116580 6.668540 3.081230 0.297517 11.020800 4.390030 1.000730 8.799290 5.500690 0.249366 4.402390 4.235780 0.979776 2.054180 3.237900 1.752760 12.860400 1.827840 2.501810 10.825900 3.086540 3.124780 8.741600 2.948380 1.747870 6.634040 4.233540 2.446170 4.402610 2.968750 3.176280 2.053970 1.912750 3.907450 12.840600 0.504315 4.462460 10.927600 1.948670 5.330730 8.795400 1.798170 3.974110 6.434590 2.967060 4.639870 4.402610 1.702350 5.369850 2.054010 0.570238 5.966400 13.089700 -0.728520 6.786040 11.017200 0.449591 7.414520 8.820910 0.483325 6.048420 6.559930 1.699930 6.836710 4.402440 0.435275 7.566280 2.054080 -0.737022 8.298160 13.022600 -0.844239 8.343460 6.633870 5.779740 0.095860 10.864300 7.054800 0.776891 8.682590 8.036730 0.250423 4.402120 6.768700 0.979849 2.054210 5.718710 1.813310 12.804700 4.411480 2.438490 10.717900 5.706780 3.072680 8.712760 5.459950 1.674140 6.524230 6.769580 2.447220 4.402330 5.501670 3.176350 2.054000 4.374820 3.785230 13.565300 3.322680 4.769850 10.953900 4.307250 5.238440 8.943800 4.156970 3.903990 6.639790 5.503100 4.640920 4.402340 4.235270 5.369920 2.054040 3.000260 6.093110 13.348300 1.886410 6.763950 11.023400 2.960500 7.501550 8.691460 3.063920 6.095710 6.478340 4.235960 6.837730 4.402170 2.968190 7.566360 2.054100 1.727250 8.259190 13.062400 1.722530 8.192750 6.699790 8.315720 0.307902 10.925300 9.370240 0.945487 8.807590 9.304490 0.980819 2.054290 8.260540 1.846440 12.864900 6.996320 2.483410 10.765400 8.157750 3.216030 8.755140 8.066020 1.756190 6.527330 8.037460 3.177320 2.054090 6.947260 4.119310 12.819500 5.917600 4.574700 10.634300 6.832670 5.426160 8.522530 6.698610 4.054580 6.584700 6.771070 5.370880 2.054130 5.624000 5.958260 13.005000 4.463070 6.648980 10.916700 5.475400 7.553090 8.746530 5.479150 6.097860 6.561870 5.503970 7.567290 2.054190 4.377510 8.152320 13.292200 4.180220 8.327230 6.473090 
0.431504 0.248267 4.402290 -0.835663 2.445040 4.402500 -2.102140 4.638740 4.402500 -3.369270 6.835570 4.402330 0.472917 0.110761 10.873800 1.639660 1.014840 8.818660 2.967620 0.249285 4.402330 1.700090 0.978866 2.054370 0.260512 1.676740 12.899600 -1.084010 2.369880 10.754000 0.223388 3.030580 8.746070 0.468822 1.552890 6.488610 1.700470 2.446090 4.402540 0.433042 3.175340 2.054160 -1.006450 3.854100 12.790000 -2.276690 4.522180 10.794100 -0.899081 5.258710 8.475350 -0.955064 3.711290 6.505270 0.433987 4.639790 4.402550 -0.833358 5.368900 2.054200 -2.244010 6.008460 12.867500 -3.532020 6.741360 10.808400 -2.289430 7.459780 8.723440 -2.139160 6.015230 6.629620 -0.833140 6.836630 4.402380 -2.100430 7.565340 2.054260 -3.617300 8.154670 12.848600 -3.417790 8.270960 6.743070 2.972650 0.180155 10.669000 4.254840 0.985511 8.606150 5.500690 0.249366 4.402390 4.235780 0.979776 2.054180 2.649880 1.407170 12.771100 1.443120 2.547030 10.955900 2.964760 3.240290 8.466070 3.054370 1.530870 6.508880 4.233540 2.446170 4.402610 2.968750 3.176280 2.053970 1.531150 3.745750 13.105900 0.181790 4.752000 10.529900 1.550250 5.197710 8.576200 1.711890 3.943960 6.457400 2.967060 4.639870 4.402610 1.702350 5.369850 2.054010 0.252072 5.947650 12.844700 -1.131690 6.725000 10.698900 0.385136 7.397670 8.682770 0.434719 6.068560 6.453690 1.699930 6.836710 4.402440 0.435275 7.566280 2.054080 -1.024270 8.251220 12.796400 -1.045390 8.159100 6.504490 5.495530 0.131743 10.731200 6.709200 0.827512 8.617740 8.036730 0.250423 4.402120 6.768700 0.979849 2.054210 5.275800 1.583330 12.575500 4.061210 2.394360 10.596200 5.477140 3.014420 8.557640 5.431670 1.561900 6.632390 6.769580 2.447220 4.402330 5.501670 3.176350 2.054000 4.000190 3.684020 12.687000 2.759570 4.586620 10.867300 4.172210 5.342790 8.580070 4.206000 3.979670 6.537470 5.503100 4.640920 4.402340 4.235270 5.369920 2.054040 2.720770 5.866180 12.972500 1.553190 6.666930 10.737000 2.639740 7.498430 8.669930 2.836210 6.094050 6.561100 4.235960 6.837730 4.402170 2.968190 7.566360 2.054100 1.473980 8.209350 13.098200 1.544810 8.170360 6.565380 8.029180 0.085954 10.735500 9.109750 0.692861 8.543090 9.304490 0.980819 2.054290 7.702570 1.665370 12.815500 6.634100 2.448070 10.567000 7.862620 3.098660 8.521230 7.886020 1.540600 6.581230 8.037460 3.177320 2.054090 6.592990 3.743900 12.922200 5.420290 4.449670 10.738500 6.561360 5.307640 8.797770 6.748640 3.878280 6.359100 6.771070 5.370880 2.054130 5.239320 5.878170 12.732100 4.079660 6.735590 10.790200 5.294990 7.537780 8.776550 5.544430 6.148310 6.459430 5.503970 7.567290 2.054190 4.033790 8.040050 12.733400 4.129150 8.312750 6.530100 
0.431504 0.248267 4.402290 -0.835663 2.445040 4.402500 -2.102140 4.638740 4.402500 -3.369270 6.835570 4.402330 0.526591 0.484931 10.972400 1.619850 1.130270 8.691690 2.967620 0.249285 4.402330 1.700090 0.978866 2.054370 0.335574 1.987000 13.197700 -1.105330 2.544710 10.795800 0.386768 3.124720 8.757800 0.278424 1.742750 6.405590 1.700470 2.446090 4.402540 0.433042 3.175340 2.054160 -0.973092 4.186160 12.843200 -2.547100 4.769780 10.879500 -1.053460 5.560650 8.763680 -0.918486 3.906680 6.750970 0.433987 4.639790 4.402550 -0.833358 5.368900 2.054200 -2.222080 6.208390 12.815900 -3.591330 6.960720 10.784900 -2.206690 7.624740 8.729470 -2.233210 6.140140 6.587270 -0.833140 6.836630 4.402380 -2.100430 7.565340 2.054260 -3.429570 8.568860 12.921900 -3.507030 8.392430 6.581750 3.058860 0.437302 10.806500 4.059550 0.964297 8.597080 5.500690 0.249366 4.402390 4.235780 0.979776 2.054180 2.885880 2.018130 12.964800 1.577640 2.653100 11.011300 2.956140 3.224660 8.692770 2.860260 1.903560 6.546250 4.233540 2.446170 4.402610 2.968750 3.176280 2.053970 1.760280 4.167310 12.882300 0.199549 4.835050 10.894900 1.442560 5.454630 8.801130 1.603370 3.931750 6.588950 2.967060 4.639870 4.402610 1.702350 5.369850 2.054010 0.478806 6.495920 13.214600 -0.999271 6.962950 10.780700 0.171793 7.690560 8.653190 0.449398 6.207440 6.634600 1.699930 6.836710 4.402440 0.435275 7.566280 2.054080 -0.848226 8.530700 12.806900 -1.088940 8.276440 6.496230 5.424360 0.448913 10.595200 6.607670 1.085250 8.630750 8.036730 0.250423 4.402120 6.768700 0.979849 2.054210 5.473570 1.969760 12.913400 4.127390 2.552210 10.649300 5.424270 3.170310 8.896460 5.428510 1.720560 6.479940 6.769580 2.447220 4.402330 5.501670 3.176350 2.054000 4.149770 4.190680 13.293400 2.736010 4.846010 10.647300 4.299030 5.469930 8.759090 4.402860 3.930770 6.460630 5.503100 4.640920 4.402340 4.235270 5.369920 2.054040 2.825410 6.337680 12.763800 1.568010 7.098760 10.913800 2.788480 7.514780 8.564860 2.897140 5.963640 6.612740 4.235960 6.837730 4.402170 2.968190 7.566360 2.054100 1.593910 8.731790 12.725400 1.535450 8.332950 6.479390 7.988970 0.397007 10.674600 9.212450 0.908390 8.681600 9.304490 0.980819 2.054290 8.043620 1.775490 13.135800 6.695960 2.516920 10.864600 7.875900 3.224640 8.703120 7.834520 1.620800 6.449770 8.037460 3.177320 2.054090 6.681900 4.011540 13.108500 5.201790 4.654650 11.014800 6.631510 5.439740 8.846230 6.694370 3.997950 6.766930 6.771070 5.370880 2.054130 5.446180 6.278140 12.961700 4.159020 7.010120 10.689100 5.405740 7.587840 8.718310 5.498800 6.123990 6.464710 5.503970 7.567290 2.054190 4.229770 8.502200 12.873000 4.059250 8.282540 6.661890 