-160306.0945892557
-160306.5838706297
-160306.1005284125
-160305.9487042614
-160306.8824022392
-160306.3813409208
-160306.2483896336
-160306.0169444272
-160305.5758429865
-160306.5107941845
-160306.3086964563
-160306.2671227670
-160306.2311472759
-160306.5104832944
-160306.3319163389
-160306.1807516557
-160306.3942491853
-160306.2469091982
-160305.8083479402
-160306.0365507740
-160306.3675530483
-160306.2135513062
-160305.8542622535
-160306.3398231509
-160307.1318952602
-160307.0033749388
-160306.4383905408
-160306.3348976182
-160305.9891387461
-160305.8586069592
-160306.2786590335
-160305.7791895811
-160306.1355177631
-160306.9541224689
-160306.3549839738
-160306.0575691195
-160305.7656423934
-160306.6586998962
-160306.1918392065
-160306.1502908237
-160306.5753691129
-160305.4414318085
-160306.3853551442
-160306.4755304071
-160306.5066410470
-160305.3363765442
-160305.9286425321
-160305.2685600597
-160306.2680532603
-160305.8571334627
-160304.8145908994
-160306.4024985886
-160306.5133119178
-160306.3178366243
-160306.4528872698
-160305.7577690514
-160305.2908543470
-160306.6407093615
-160306.4851311278
-160306.4797608250
-160305.9394210976
-160306.4621098883
-160307.2630882838
-160306.2175411755
-160306.6121367275
-160306.2589054732
-160306.1362633550
-160306.7381212199
-160306.1150146651
-160306.2331485372
-160306.2033629557
-160306.9129872911
-160305.5415660299
-160305.9166349645
-160306.5169815091
-160305.7481091459
-160305.4602718827
-160306.3183280619
-160307.1393190701
-160306.7603544177
-160306.5574776276
-160305.7327250536
-160306.1215317918
-160305.8747248064
-160305.4547998093
-160306.5052841513
-160305.6757787009
-160305.9752987639
-160306.0420371334
-160306.4242516415
-160305.5764703449
-160305.8922175089
-160306.2085454999
-160306.3619355301
-160306.8331742595
-160306.0655107621
-160306.1802324625
-160306.3083795798
-160305.7120155573
-160305.2454482063
-160305.9098919834
-160306.0768240312
-160306.2536846969
-160306.1280255165
-160306.6785867923
-160306.5552362258
-160307.0353612410
-160306.1064561405
-160306.4675788324
-160305.2375928238
-160305.3229362972
-160305.4994909709
-160304.4878455741
-160305.3779929554
-160305.3174714349
-160305.3491664392
-160306.1134894671
-160304.6617957101
-160305.5667556085
-160305.2156897002
-160305.5671367040
-160304.7888508344
-160304.3093380754
-160305.5044600418
-160304.8480375005
-160305.0660888552
-160305.7067789985
-160304.8259490673
-160305.4101305529
-160304.4443749792
-160304.3308983356
-160305.9086757706
-160305.2212194617
-160304.9609533174
-160305.3095526499
-160305.7324723959
-160305.7957573686
-160305.0726965957
-160304.9492944637
-160305.3315067949
-160306.3610642216
-160306.0252781859
-160305.1686957752
-160305.8042824233
-160305.9559672521
-160305.0295065502
-160305.1690715644
-160305.4304184088
-160304.9546155139
-160305.2755657667
-160304.7674996937
-160305.1389710112
-160305.7870414261
-160304.3067415651
-160305.3281348962
-160306.1661822723
-160305.6354338776
-160304.9657765353
-160305.6193949434
-160305.5973324971
-160305.1963546509
-160304.9785764985
-160305.5853208477
-160305.6875262637
-160305.3465646227
-160305.8815458842
-160304.1881421063
-160305.1835092448
-160306.0061069491
-160304.7402668122
-160304.8074392033
-160305.5973552186
-160305.2094974775
-160305.7592965624
-160305.4723959150
-160305.7260653394
-160304.3745836283
-160306.1038480654
-160305.6824561025
-160306.2738638433
-160305.0573858381
-160305.4408281239
-160305.9598850112
-160305.0289553836
-160304.4327109552
-160305.2105945045
-160304.7550640910
-160305.9423396547
-160304.6903933785
-160306.2423668018
-160305.3367572315
-160305.0760895833
-160304.7473621807
-160305.4410528900
-160305.1400615074
-160304.5932168986
-160305.6173136807
-160305.2079764972
-160305.5980112851
-160304.9809550456
-160305.7564439930
-160305.1282955769
-160305.5500601997
-160304.9708407100
-160305.1387303265
-160304.2646886833
-160304.9220377722
-160305.4699181824
-160306.2790888373
-160305.6331641761
-160303.9794639851
-160305.9314107463
-160305.4130997231
-160305.2799194522
-160304.5481028721
-160305.1424615515
-160305.6623817199
-160304.5459384785
-160304.5068117730
-160304.9875295882
-160305.3584252488
-160305.5071731529
-160304.9919270840
-160304.1346032991
-160304.5808874202
-160306.1141282543
-160303.9126789481
-160305.5837141515
-160305.5194302489
-160306.0751625041
-160304.4711920707
-160305.5887569653
-160305.3654867391
-160306.3305954983
-160304.0155085931
-160304.4788825522
-160305.2383361028
-160306.4211904968
-160305.5451643274
-160305.0918657916
-160304.8025252355
-160305.4600375927
-160304.5595437626
-160305.3888504339
-160305.5109789371
-160305.3098434035
-160305.8062313026
-160305.5732379046
-160304.7986225787
-160306.3375561704
-160305.8516766277
-160305.2576165932
-160305.5259053339
-160305.2676759618
-160305.0918984453
-160305.8469966777
-160305.6208303439
-160305.4814725444
-160305.6765564022
-160305.9507213053
-160305.5312979500
-160304.5948064516
-160306.0218002988
-160305.0367439621
-160304.4828185429
-160305.7542933412
-160305.7463013576
-160304.7349299794
-160305.3791752901
-160306.0083177381
-160305.3169224452
-160304.4843340809
-160304.0903745950
-160305.1573520293
-160305.1187624765
-160304.0973755401
-160305.6978152963
-160305.9814576526
-160305.9869008818
-160304.5829006545
-160305.7735985940
-160305.8987266082
-160305.5149581939
-160304.4487720668
-160305.6911110915
-160304.8055201204
-160304.9997846434
-160305.3620801459
-160304.8855241759
-160305.0945733244
-160304.9966966955
-160305.1286294605
-160304.8185398155
-160305.2725726505
-160304.3561303640
-160305.3239878812
-160305.7201068625
-160305.3260178505
-160304.9159501774
-160304.4685434506
-160305.2538150268
-160305.1884694720
-160305.4637217420
-160305.1678605218
-160305.7090115566
-160304.7927929477
-160304.7666519230
-160304.6263560110
-160305.4574971378
-160304.7683409337
-160305.5818858186
-160305.2115905772
-160305.4366436933
-160305.2041044532
-160305.9505682413
-160304.2493075843
-160305.2291232804
-160305.3366394062
-160306.3117116138
-160305.3083549408
-160304.8014609982
-160305.6900868550
-160305.8021072813
-160305.2835142121
-160306.1222903091
-160304.5885275607
-160306.2347078855
-160304.9140789865
-160304.9105457242
-160305.3486781309
-160305.6476770959
-160305.9433339587
-160305.5434536837
-160306.0391550396
-160306.0296622120
-160304.4405641608
-160305.3011437878
-160305.3202354313
-160305.6783273191
-160305.3596768364
-160305.1916672178
-160305.4312597848
-160305.9563706609
-160304.9405058667
-160305.7445118009
-160304.5822969700
-160304.9774904921
-160304.9757455621
-160304.8975633088
-160304.6877424455
-160305.3650336696
-160305.2325321866
-160304.8212674847
-160305.5966058171
-160304.7852411082
-160305.2410244515
-160306.1407076544
-160305.7235499190
-160305.3376724864
-160304.9241847504
-160305.6126549556
-160306.0314343534
-160305.6238777469
-160304.0053420117
-160305.0642813391
-160305.8191866428
-160304.6667779785
-160305.0004676491
-160304.7824701729
-160304.7713182673
-160305.7767857274
-160304.7106232741
-160305.6445973114
-160306.4787301938
-160304.2464106603
-160306.2564363121
-160305.6600589561
-160304.7946422334
-160305.4623399479
-160304.7797978789
-160305.2113500285
-160305.2895544592
-160304.4534103833
-160305.9388742848
-160304.3772676233
-160305.0572583528
-160305.2019225083
-160306.5316496699
-160305.9017492487
-160305.0854490750
-160304.4331221193
-160304.8813494053
-160305.4972698416
-160305.3897312664
-160305.2442890013
-160305.9100545715
-160305.2000749914
-160305.5290960048
-160305.4896233065
-160306.1902365920
-160305.6056516976
-160305.9149965671
-160305.7098159251
-160305.7381784872
-160305.4443928153
-160305.8668475188
-160304.8180855214
-160305.0277775388
-160304.5162712666
-160304.6971050665
-160306.1717265919
-160305.3572084918
-160305.2905680832
-160304.8473157185
-160305.5194215412
-160305.3334705044
-160304.9040539043
-160304.5882008880
-160303.9382892147
-160304.3221979036
-160306.2037975215
-160305.4065913042
-160305.4736072298
-160304.3255062637
-160304.8357989083
-160305.1463522353
-160305.6807589284
-160305.8538574842
-160305.5665534280
-160304.7375481228
-160305.6212351133
-160303.1547304591
-160305.3526633742
-160305.4302283373
-160305.1037476427
-160305.5444749269
-160305.8281283038
-160304.9531409289
-160305.4210647675
-160304.7547627249
-160305.3912004091
-160305.2148690048
-160304.4369997415
-160305.3300998302
-160305.6629878535
-160305.6335056789
-160305.0417224210
-160304.9528303110
-160305.5106861426
-160305.5945116289
-160305.6017486327
-160305.4265245957
-160305.5784403131
-160306.0700769685
-160304.7029123841
-160305.1562419408
-160304.8657742891
-160303.3520674195
-160305.2623282445
-160305.6463789768
-160304.0469299870
-160304.6142020462
-160304.3104591844
-160304.8811439594
-160304.2637029509
-160304.3972191465
-160304.8482637632
-160303.7177214872
-160304.6093599163
-160304.1598844441
-160304.8165605954
-160304.7930588029
-160304.4910185575
-160305.1758595803
-160304.5873737980
-160305.1445026775
-160304.0799729073
-160303.8916529834
-160304.0813457216
-160305.3503685021
-160303.0685903725
-160305.2004404403
-160303.5003724583
-160303.9043572985
-160304.4210223050
-160304.2107608894
-160303.7536783385
-160304.4519351181
-160304.8471958524
-160304.7749942532
-160304.5677258178
-160304.0048109816
-160305.4366944425
-160304.9192910551
-160304.8121681338
-160303.2669302084
-160304.2818360733
-160304.5183766114
-160305.1388465191
-160303.6886303402
-160303.7536501748
-160306.2331157474
-160305.0768158551
-160304.7650803295
-160305.1331553941
-160304.7456047334
-160304.4366302110
-160303.7954514873
-160304.2080121314
-160302.8767133763
-160303.9530179208
-160303.6502644650
-160304.2098596483
-160303.7461156145
-160304.1226155958
-160303.9127231665
-160304.9297441724
-160304.6742231493
-160304.1236752071
-160304.5117091419
-160304.1586882316
-160304.2426437883
-160303.9826754727
-160305.0412945220
-160304.6948793113
-160304.2343259484
-160303.8153621934
-160304.0003289944
-160303.9326027156
-160304.2772710914
-160303.6478453729
-160303.5824244426
-160303.3104450218
-160303.3521961294
-160305.0316835970
-160304.6602875191
-160304.2174601962
-160304.3523179130
-160304.2192113849
-160304.2610200445
-160304.3490964932
-160303.8340802245
-160304.4477060608
-160302.7831395476
-160304.7316325039
-160303.7757814659
-160304.7189615227
-160303.8174539325
-160305.1532527703
-160304.0273343888
-160305.5508913714
-160303.5824532867
-160302.9848390372
-160304.5274649417
-160303.4539041212
-160303.6740244935
-160304.0459588127
-160304.2900997626
-160304.4671389350
-160304.3946566504
-160303.0955772630
-160302.7824655216
-160304.7029606844
-160303.5234426782
-160304.2470372024
-160305.5395802791
-160304.0663546978
-160304.3166383457
-160304.9346369153
-160304.3553308935
-160304.8628460720
-160303.5554774167
-160305.0952034040
-160304.1492175813
-160303.8587795901
-160305.1505116314
-160303.8429352172
-160304.2844944895
-160304.2303359431
-160304.0952851615
-160303.9564337659
-160304.5919160583
-160304.0527061476
-160304.5006822726
-160303.3910293601
-160303.1903854002
-160304.9479217854
-160304.8835905349
-160303.6602677781
-160304.5933884663
-160304.0285688332
-160304.7080243148
-160304.2473438747
-160303.7809034648
-160303.6231226056
-160304.2542784240
-160303.6653153539
-160304.5886068818
-160304.7625525279
-160304.5506291770
-160304.6389513446
-160304.6314203218
-160304.1605105780
-160304.0169782800
-160304.0634253923
-160305.1745698967
-160304.1638502312
-160305.3287912348
-160303.0261668716
-160303.3064833164
-160303.5187922526
-160305.1857951371
-160305.1029304848
-160304.2860726138
-160302.9404651604
-160304.0651987582
-160303.8791366989
-160303.4513914220
-160303.3628804074
-160304.3482805599
-160305.0899362323
-160303.6085076431
-160304.8477829380
-160303.4962583691
-160304.2091140564
-160304.2467244075
-160304.4958376937
-160304.7447002270
-160304.7304225496
-160305.1441908350
-160305.1432686412
-160304.1733129902
-160304.3201352807
-160303.9595942321
-160303.9275069757
-160303.5386784685
-160305.2571526391
-160304.4590004180
-160305.7521607850
-160303.9147505508
-160303.9256446285
-160304.2148088549
-160304.3927941671
-160304.8412394164
-160305.3669546573
-160304.6212635365
-160304.1561517224
-160304.4781294771
-160304.0008475074
-160304.4887993331
-160303.8273496246
-160303.8826043817
-160304.3791377257
-160305.6284315721
-160304.1376949206
-160304.0533345945
-160304.9357875487
-160304.6185316496
-160303.3051381216
-160304.5996099412
-160304.6040100221
-160304.1440114993
-160303.7941536403
-160303.5769097834
-160304.1375977760
-160305.0239691695
-160304.4614640007
-160304.8880525217
-160305.2032742338
-160304.7657925875
-160303.4199852665
-160305.1170307440
-160304.8592684552
-160304.7699213709
-160305.2307141940
-160304.8336878490
-160303.6266403573
-160304.2088622150
-160303.6575674564
-160304.6586435433
-160303.2187644252
-160304.7867419521
-160304.7689688363
-160303.4887450337
-160303.8379345810
-160302.8325279384
-160304.0701242909
-160305.7829783582
-160303.6345007739
-160303.0418388603
-160303.6228953906
-160305.0455423552
-160303.4535189441
-160303.9830217375
-160304.6901501087
-160305.3656479666
-160304.5537802553
-160303.6293795913
-160304.8636752029
-160302.7731358263
-160303.7722744627
-160304.2129248747
-160304.1370236157
-160304.3269635694
-160304.1654679481
-160303.9812524533
-160304.5790148688
-160303.6774713596
-160304.7942186882
-160304.4602786728
-160302.8439171273
-160304.4276545358
-160305.3074829520
-160304.3872124319
-160304.2147500784
-160303.8476143508
-160304.4751917360
-160304.9190573093
-160304.6248814261
-160303.7800554220
-160304.7657395253
-160303.2612341854
-160304.7476680367
-160304.0847068719
-160304.7219562716
-160304.4521709048
-160304.3128366431
-160303.8942209217
-160303.2233628770
-160304.3849428664
-160303.8919529889
-160305.2967907826
-160305.1757247479
-160305.1350845452
-160304.8540531213
-160303.6907388144
-160304.8525167665
-160302.8583111333
-160304.0362814920
-160303.7307607745
-160304.4866503140
-160303.8210256989
-160304.3455852722
-160304.4581342797
-160305.1000064855
-160304.9143196712
-160305.0791236527
-160305.4879768817
-160305.4158626311
-160303.8919014233
-160304.2971133609
-160304.1019958971
-160304.7689485639
-160304.2434061153
-160305.1247459878
-160304.3533934430
-160303.1370229228
-160305.2277809428
-160303.4282086829
-160303.3657204596
-160303.8648414702
-160303.3551602655
-160305.1820692183
-160304.6982147468
-160304.4054519508
-160304.3952672739
-160304.5521025374
-160304.6986661836
-160303.7815776269
-160304.4385326949
-160304.5173855728
-160303.1927726549
-160303.9877007351
-160303.8492184619
-160304.5874117578
-160304.1716898311
-160304.8242898532
-160304.3671720636
-160304.7678718094
-160304.1657083607
-160304.4139892506
-160304.6740224654
-160304.3287721741
-160304.4130246070
-160304.6712690814
-160305.0070968866
-160304.6148302210
-160304.2234426191
-160304.1556990610
-160303.5012877132
-160304.9828542642
-160304.0053941215
-160304.6982551557
-160304.7870365154
-160304.1738232037
-160303.2075168715
-160304.1417114570
-160305.4654019089
-160303.7388937130
-160303.3245587506
-160305.1792416833
-160304.0338664816
-160303.6472069938
-160304.6930364203
-160303.1156119170
-160304.9235065067
-160303.6004061336
-160304.4733344230
-160304.3634743085
-160304.6027774824
-160303.7896583196
-160304.5357787000
-160305.5138381734
-160304.2587269411
-160303.6753646542
-160305.1741205007
-160305.0745922769
-160303.6155781132
-160304.6601177200
-160304.0831167746
-160304.5660713656
-160303.4247740620
-160305.1877018388
-160304.8394295872
-160303.4404920379
-160303.7960864650
-160302.6675129326
-160303.8142544179
-160304.3922964709
-160304.9193498316
-160303.9593169481
-160303.3279291527
-160303.6122900255
-160302.7612464922
-160304.5418813972
-160305.7651018392
-160303.1881263110
-160304.3067280955
-160304.4408418530
-160303.8480935433
-160304.0170102534
-160304.6624142248
-160304.0599877780
-160303.6759419438
-160303.8156623350
-160304.0218616351
-160304.2950701941
-160305.0151837019
-160304.1462572548
-160304.4884053122
-160304.1366796638
-160303.7295931340
-160304.5083983328
-160305.4053878807
-160305.5389784994
-160304.3161520782
-160304.7770160591
-160303.0857339529
-160304.7600775165
-160304.8215066727
-160304.9782725473
-160304.6656204062
-160304.7751384736
-160303.6290417620
-160304.3869577333
-160305.9515294834
-160304.6499643361
-160304.1320606674
-160303.7418794822
-160303.8541022252
-160304.1964887904
-160304.6459370512
-160303.9165033721
-160303.9117445091
-160303.5945543254
-160304.1393320936
-160303.9273662928
-160305.0630813170
-160303.6992016910
-160305.0113089368
-160304.1383326194
-160303.7600229450
-160302.4245846581
-160305.0879387807
-160303.7622197200
-160304.4111217149
-160304.4836488983
-160305.0001854671
-160304.4819408397
-160304.1495668395
-160304.8544040121
-160304.9701338943
-160304.0449564814
-160303.4364293782
-160303.4077551097
-160303.8461616710
-160305.0436893959
-160304.4586246288
-160304.3672913855
-160303.7536182014
-160304.0116388622
-160305.5445454044
-160302.8802210599
-160303.8423177909
-160303.4258578914
-160303.8550064595
-160305.1476073604
-160304.3208283546
-160302.5422223305
-160304.5453422771
-160304.2302371658
-160303.6807120994
-160304.3125711961
-160304.5753054129
-160304.7698544309
-160304.0193599565
-160304.0008121326
-160303.7136493035
-160304.5517394015
-160304.5786556785
-160303.6356481419
-160304.5722161044
-160303.9429328375
-160304.4489471720
-160305.0165305294
-160304.0338599509
-160304.1433733923
-160303.1002125863
-160304.4580496523
-160305.4915879685
-160303.7119834225
-160304.6208201270
-160303.9441687785
-160304.6550939542
-160305.5721317618
-160304.8011099713
-160304.8976536506
-160302.8676908976
-160304.7520425388
-160304.1057805925
-160304.2165931054
-160304.0972724089
-160304.0866078591
-160304.4046645894
-160304.8607623603
-160304.8138688453
-160303.2570062165
-160305.0608536570
-160304.5987042103
-160304.1877408744
-160303.8166418087
-160305.5925130888
-160303.0881959029
-160304.7841771431
-160304.1283562456
-160304.2882095238
-160304.2585227196
-160304.8442330769
-160304.4564739770
-160304.9672433650
-160303.6682801703
-160303.7787498198
-160304.7455093576
-160304.7924768875
-160304.3334281780
-160304.3941522874
-160304.6054207963
-160304.1314114037
-160304.6608260324
-160304.4616015543
-160303.8949541325
-160303.8095626310
-160303.7507397811
-160304.2110662012
-160304.0997642915
-160304.1017726277
-160304.5713721433
-160303.9923104797
-160303.9290525824
-160304.8186754643
-160302.6723243135
-160304.4661986456
-160303.8602023373
-160305.4864911401
-160304.2220319809
-160305.1225550632
-160304.9736353192
-160304.8345104492
-160304.3412918600
-160304.2651997131
-160303.7028782212
-160303.6829690117
-160304.7141034742
-160304.1885312291
-160305.3031745734
-160304.0874859705
-160304.0748592078
-160304.3905561669
-160304.8356598580
-160303.9081970970
