2.318250 0.574009 13.797000 0.793837 1.849880 11.757400 2.085190 0.762707 9.817120 0.743600 2.230520 8.134570 1.979750 0.751977 6.267600 0.551958 2.020320 4.418420 1.899590 0.633198 2.511920 0.633198 1.899590 0.732491 1.586920 3.162760 13.637600 0.544378 4.441890 11.950900 1.879840 3.511780 10.050500 0.471487 4.590390 8.126920 2.082500 3.337240 6.089860 0.534779 4.577420 4.347520 1.899590 3.165990 2.511920 0.633198 4.432390 0.732491 2.142670 6.101530 13.787900 0.702230 6.977550 11.988800 1.889400 5.908190 10.152000 0.553293 7.106760 8.114770 1.857140 5.822820 6.268540 0.723284 7.029510 4.295710 1.899590 5.698780 2.511920 0.633198 6.965180 0.732491 1.598750 8.335300 13.779400 0.732034 9.485850 11.980600 2.016310 8.342160 9.919240 0.766622 9.632170 8.105220 2.051810 8.319260 6.263810 0.704462 9.620310 4.299400 1.899590 8.231580 2.511920 0.633198 9.497970 0.732491 4.599130 0.662880 13.717500 3.264360 1.897290 11.775000 4.717540 0.752997 9.906180 3.282040 1.990630 7.929840 4.522160 0.585529 6.336980 3.296720 1.918840 4.325760 4.432390 0.633198 2.511920 3.165990 1.899590 0.732491 4.133510 3.210470 13.547600 3.247530 4.686820 11.993700 4.327630 3.215020 10.141900 3.128450 4.683090 8.104080 4.472690 3.204860 6.214010 3.216670 4.448210 4.373870 4.432390 3.165990 2.511920 3.165990 4.432390 0.732491 4.710990 5.769590 13.616400 3.114170 7.131820 11.790100 4.403740 5.663340 9.947830 3.162700 7.036300 8.245350 4.472040 5.559850 6.271510 3.258390 6.978930 4.380830 4.432390 5.698780 2.511920 3.165990 6.965180 0.732491 4.356090 8.151230 13.603700 3.312560 9.676350 11.590700 4.708340 8.303930 10.040000 3.432690 9.452140 8.164110 4.527420 8.147590 6.359460 3.315620 9.498400 4.478710 4.432390 8.231580 2.511920 3.165990 9.497970 0.732491 7.359810 0.607145 13.914500 5.825520 1.900120 11.914300 7.209290 0.635176 9.917740 5.624230 2.145840 8.174510 7.076670 0.419555 6.156330 5.728680 1.906220 4.479800 6.965180 0.633198 2.511920 5.698780 1.899590 0.732491 6.482530 3.120040 13.969400 5.675240 4.243480 11.951500 6.907210 3.103640 10.037900 5.635720 4.539180 8.210390 6.940030 3.283280 6.138350 5.687860 4.328600 4.252670 6.965180 3.165990 2.511920 5.698780 4.432390 0.732491 7.178300 5.619830 13.786600 5.841300 6.918990 11.791300 7.005850 5.602520 10.099800 5.813160 7.027280 8.271220 6.997470 5.768970 6.223890 5.794500 6.912640 4.295300 6.965180 5.698780 2.511920 5.698780 6.965180 0.732491 6.724490 8.203390 13.801900 5.877070 9.629270 11.858000 7.112140 8.287260 9.966240 5.845550 9.508690 8.166780 7.080050 8.173760 6.304490 5.723550 9.557200 4.295010 6.965180 8.231580 2.511920 5.698780 9.497970 0.732491 9.949750 0.493051 13.822300 8.335440 1.926550 11.948500 9.664800 0.726598 9.865940 8.271980 1.846890 8.038580 9.463890 0.668046 5.999190 8.210940 1.988300 4.281190 9.497970 0.633198 2.511920 8.231580 1.899590 0.732491 9.137680 3.445890 13.816000 8.207060 4.399830 11.926300 9.453340 3.230660 10.061600 8.087910 4.375570 8.172800 9.366630 3.347540 6.170700 8.259710 4.417430 4.318900 9.497970 3.165990 2.511920 8.231580 4.432390 0.732491 9.715130 5.604320 13.985700 8.316480 7.044010 11.956600 9.563080 5.739440 9.909270 8.260180 6.798250 7.966760 9.503230 5.819830 6.225410 8.198170 7.119960 4.365710 9.497970 5.698780 2.511920 8.231580 6.965180 0.732491 9.362220 8.212460 13.642100 8.350070 9.603170 11.961600 9.549420 8.336850 10.136100 8.407310 9.378480 8.046710 9.680850 8.260610 6.259220 8.276110 9.524150 4.295520 9.497970 8.231580 2.511920 8.231580 9.497970 0.732491 
1.813390 0.708894 13.741500 0.606879 2.042300 11.926200 1.796350 0.830006 9.956280 0.606052 2.002150 7.962550 1.971330 0.664215 6.122360 0.739705 1.874400 4.299620 1.899590 0.633198 2.511920 0.633198 1.899590 0.732491 2.293040 3.037500 13.818800 0.659442 4.573670 11.812200 1.898180 3.188950 10.034600 0.732998 4.432920 8.120690 1.851210 3.153270 6.170950 0.456993 4.549490 4.384460 1.899590 3.165990 2.511920 0.633198 4.432390 0.732491 1.963430 5.702890 13.736700 0.516839 7.075170 11.905800 1.936010 5.698130 10.054800 0.658581 6.935420 8.118550 1.994590 5.580240 6.322670 0.616418 7.054100 4.287600 1.899590 5.698780 2.511920 0.633198 6.965180 0.732491 1.544730 8.261470 13.498800 0.643907 9.746690 11.855900 2.053140 8.167570 9.851570 0.662978 9.661850 8.273750 2.004410 8.073250 6.341780 0.786678 9.611580 4.323480 1.899590 8.231580 2.511920 0.633198 9.497970 0.732491 4.301320 0.676052 14.015500 3.291860 1.837260 12.020900 4.365080 0.560551 9.816470 3.147490 1.848770 8.062260 4.494420 0.772065 6.121190 3.229020 1.854460 4.302600 4.432390 0.633198 2.511920 3.165990 1.899590 0.732491 4.629340 3.162490 13.774600 3.199030 4.373040 11.879800 4.480720 3.218540 9.990980 3.165640 4.362680 8.257550 4.453130 3.213090 6.210260 3.192510 4.607120 4.373470 4.432390 3.165990 2.511920 3.165990 4.432390 0.732491 4.380180 5.846580 13.839600 3.089700 6.965460 11.849200 4.409840 5.694150 10.057100 3.155540 6.993590 8.174170 4.375030 5.698830 6.493720 3.160150 7.002240 4.338010 4.432390 5.698780 2.511920 3.165990 6.965180 0.732491 4.242140 8.458490 13.931500 3.051320 9.609640 11.932000 4.542360 8.226250 10.163100 3.150060 9.526940 7.886250 4.429610 8.157100 6.066690 3.341300 9.522920 4.293300 4.432390 8.231580 2.511920 3.165990 9.497970 0.732491 6.928910 0.434956 13.769000 5.646460 1.927170 11.890400 6.877770 0.505934 10.030100 5.679820 1.854580 8.090550 7.046640 0.694961 6.313050 5.723610 1.955920 4.299910 6.965180 0.633198 2.511920 5.698780 1.899590 0.732491 7.139500 3.096260 13.884300 5.798150 4.544430 11.898400 7.097580 3.068200 9.862310 5.779370 4.346310 8.027560 6.849890 3.144640 6.223860 5.696230 4.469940 4.467180 6.965180 3.165990 2.511920 5.698780 4.432390 0.732491 7.042810 5.644020 13.790800 5.781540 6.951750 12.432200 7.004320 5.623680 9.804040 5.809480 6.912070 7.925900 7.039790 5.773310 6.194700 5.789770 6.890190 4.300940 6.965180 5.698780 2.511920 5.698780 6.965180 0.732491 6.981490 8.223990 14.034100 5.484010 9.488560 12.098700 7.001250 8.247100 9.885600 5.626860 9.447720 7.979650 7.085590 8.406440 6.219110 5.868120 9.558710 4.479520 6.965180 8.231580 2.511920 5.698780 9.497970 0.732491 9.318050 0.765824 13.774700 8.241130 1.915500 11.994900 9.358860 0.707092 10.185100 8.271330 1.813770 8.007640 9.633180 0.710964 6.140050 8.214710 1.902000 4.336820 9.497970 0.633198 2.511920 8.231580 1.899590 0.732491 9.994230 3.391580 13.824600 8.266920 4.363380 12.014800 9.485670 3.247320 10.035400 8.368770 4.337920 7.870780 9.435010 3.273010 6.048940 8.177320 4.423840 4.369330 9.497970 3.165990 2.511920 8.231580 4.432390 0.732491 9.689370 5.990520 13.817400 8.163550 6.913240 11.838900 9.440440 5.751020 9.968260 8.276910 7.086400 8.022210 9.492850 5.910390 6.222460 8.351760 6.918560 4.201140 9.497970 5.698780 2.511920 8.231580 6.965180 0.732491 9.310980 8.415920 13.668800 7.986990 9.449210 11.832000 9.668790 8.319350 9.818570 8.445770 9.603430 8.134390 9.553010 8.468730 6.253570 8.321620 9.584430 4.308380 9.497970 8.231580 2.511920 8.231580 9.497970 0.732491 
1.647720 0.471354 13.735900 0.619593 1.839820 12.056200 1.776870 0.701458 10.061100 0.624969 1.940340 8.116200 2.040580 0.756408 6.326400 0.795537 1.843220 4.444760 1.899590 0.633198 2.511920 0.633198 1.899590 0.732491 1.841640 3.247800 13.987600 0.398566 4.186050 12.032700 1.712270 3.187810 10.028400 0.465377 4.278550 8.248210 1.817480 3.149120 6.237370 0.419193 4.660390 4.501110 1.899590 3.165990 2.511920 0.633198 4.432390 0.732491 1.752180 5.683740 13.918800 0.618498 6.889520 12.085600 1.767280 5.620350 10.116400 0.512276 6.949210 8.105890 1.763710 5.801100 6.438360 0.719864 6.919900 4.331230 1.899590 5.698780 2.511920 0.633198 6.965180 0.732491 1.964450 8.179590 13.787800 0.370044 9.526070 12.040200 1.792450 8.301460 10.167900 0.623057 9.522200 8.246810 1.842410 8.264250 6.187460 0.859041 9.538160 4.353040 1.899590 8.231580 2.511920 0.633198 9.497970 0.732491 4.364380 0.752941 13.702200 3.021550 2.131920 12.073300 4.316840 0.622444 10.066500 3.249340 1.991080 8.075650 4.591370 0.721031 6.208820 3.294520 1.946430 4.440410 4.432390 0.633198 2.511920 3.165990 1.899590 0.732491 4.375480 3.215720 13.804700 3.070860 4.560350 12.032900 4.125260 3.244530 10.070600 3.017490 4.546350 8.246540 4.352450 3.306080 6.293460 3.041490 4.470000 4.381360 4.432390 3.165990 2.511920 3.165990 4.432390 0.732491 4.283260 5.791510 13.782500 2.971690 7.081050 11.825100 4.305800 5.917500 10.027000 3.172360 6.960500 8.100050 4.426470 5.868090 6.404490 3.250280 7.123890 4.399690 4.432390 5.698780 2.511920 3.165990 6.965180 0.732491 4.580890 8.251590 13.840300 3.169090 9.531640 12.039800 4.181360 8.381130 10.196200 3.161710 9.632590 8.071980 4.340660 8.167750 6.381080 3.238260 9.457880 4.341120 4.432390 8.231580 2.511920 3.165990 9.497970 0.732491 6.656900 0.076762 13.738100 5.532380 1.769240 11.763700 6.889260 0.659384 10.150000 5.729270 1.855250 8.079240 7.039780 0.587451 6.524500 5.601870 2.155830 4.472900 6.965180 0.633198 2.511920 5.698780 1.899590 0.732491 6.808740 2.599520 13.416800 5.526510 4.306150 11.833700 6.831880 3.207790 10.136600 5.425880 4.259140 8.232640 6.943540 3.255000 6.392840 5.642980 4.561000 4.561400 6.965180 3.165990 2.511920 5.698780 4.432390 0.732491 6.855090 5.359840 13.625200 5.575160 6.950940 11.969700 6.960910 5.588560 10.108800 5.659400 6.998170 8.205530 6.807310 5.762490 6.182940 5.718650 7.144940 4.297200 6.965180 5.698780 2.511920 5.698780 6.965180 0.732491 7.152730 7.822340 13.702100 5.533640 9.334230 11.726900 6.877450 8.245820 10.155100 5.826670 9.488160 8.301340 6.975030 8.216160 6.378960 5.701970 9.585980 4.395140 6.965180 8.231580 2.511920 5.698780 9.497970 0.732491 9.181860 0.565790 13.905200 8.362940 1.706490 11.852300 9.532530 0.376058 10.157700 8.245660 1.802360 8.228560 9.622430 0.748378 6.141730 8.115030 1.910030 4.484190 9.497970 0.633198 2.511920 8.231580 1.899590 0.732491 9.220300 2.930610 13.848400 8.179230 4.379370 11.963100 9.376660 2.909500 10.002200 8.095650 4.324070 8.247870 9.304910 3.069710 6.254310 8.234370 4.585350 4.361300 9.497970 3.165990 2.511920 8.231580 4.432390 0.732491 9.469150 5.696380 13.626200 8.367700 6.955540 11.726400 9.612080 5.393800 10.111700 8.073890 7.028310 8.343000 9.309860 5.768640 6.386540 8.290520 6.943130 4.310390 9.497970 5.698780 2.511920 8.231580 6.965180 0.732491 9.700130 8.216960 13.964600 7.992820 9.470720 11.805000 9.429110 8.219560 10.032600 8.259260 9.472880 8.266040 9.351950 8.194080 6.253750 8.287470 9.558480 4.343490 9.497970 8.231580 2.511920 8.231580 9.497970 0.732491 
1.835300 0.692939 14.013800 0.591864 2.056430 11.938500 1.773400 0.748260 10.007500 0.554180 1.836630 8.117600 1.856370 0.633229 6.063890 0.562580 1.809260 4.349730 1.899590 0.633198 2.511920 0.633198 1.899590 0.732491 1.784760 3.212060 13.861800 0.611636 4.518900 12.005000 1.784270 3.164970 10.129100 0.785043 4.399570 8.195400 1.982270 3.099700 6.286710 0.816947 4.439120 4.555590 1.899590 3.165990 2.511920 0.633198 4.432390 0.732491 2.015960 5.659480 13.651900 0.549281 7.125640 11.910700 1.840560 5.687250 10.039600 0.858055 6.938360 8.180250 2.183560 5.767680 6.197000 0.611439 6.854940 4.365970 1.899590 5.698780 2.511920 0.633198 6.965180 0.732491 1.742010 8.246810 13.966000 0.736302 9.517750 12.084500 1.898010 8.176470 10.202900 0.454565 9.578980 8.115450 1.776630 8.254220 6.199550 0.589728 9.501890 4.352910 1.899590 8.231580 2.511920 0.633198 9.497970 0.732491 4.407400 0.672416 13.912200 3.070060 1.845440 12.022500 4.371680 0.464054 9.989400 3.284350 1.817480 8.024760 4.446690 0.413136 6.122160 3.163250 1.969060 4.344390 4.432390 0.633198 2.511920 3.165990 1.899590 0.732491 4.391950 3.157990 13.658000 3.216660 4.360470 11.889300 4.292910 3.073910 9.977460 3.131860 4.197360 8.047690 4.474600 2.982120 6.137330 3.323670 4.350310 4.312990 4.432390 3.165990 2.511920 3.165990 4.432390 0.732491 4.539500 5.697720 13.416900 3.155010 6.799570 11.773400 4.371210 5.348760 9.857840 3.186570 6.808670 8.297650 4.537290 5.715530 6.099240 3.214860 6.938060 4.375590 4.432390 5.698780 2.511920 3.165990 6.965180 0.732491 4.392720 8.213090 13.759700 3.039160 9.480770 12.169700 4.457820 8.083710 9.910980 2.962600 9.421070 8.238960 4.400510 8.111910 6.240350 3.318220 9.570130 4.194760 4.432390 8.231580 2.511920 3.165990 9.497970 0.732491 6.949610 0.597650 13.257000 5.572760 1.744530 11.847600 7.001050 0.508285 10.084200 5.705880 1.787620 8.091060 7.197030 0.462676 6.226550 5.743880 1.749490 4.421430 6.965180 0.633198 2.511920 5.698780 1.899590 0.732491 6.899800 3.047920 13.529300 5.710080 4.195220 11.611400 6.911320 3.066180 9.910350 5.529130 4.399250 7.997140 6.990550 3.109770 6.319370 5.889470 4.305880 4.447040 6.965180 3.165990 2.511920 5.698780 4.432390 0.732491 6.883240 5.552430 13.641600 5.679740 6.774550 11.630500 6.891410 5.600540 9.840230 5.660360 6.860530 8.140490 7.009230 5.480050 6.391230 5.679890 6.879120 4.297150 6.965180 5.698780 2.511920 5.698780 6.965180 0.732491 6.971040 8.068780 13.744300 5.550720 9.222160 11.969100 7.037900 8.169270 9.999700 5.744650 9.572150 8.046130 6.885140 8.066190 6.283380 5.846160 9.370310 4.422980 6.965180 8.231580 2.511920 5.698780 9.497970 0.732491 9.390660 0.419408 13.694300 8.235740 1.783190 11.741100 9.474000 0.812547 10.060800 8.248860 1.806050 8.233570 9.591880 0.709663 6.410900 8.329530 1.905400 4.579060 9.497970 0.633198 2.511920 8.231580 1.899590 0.732491 9.383040 3.004640 13.808700 8.211840 4.137740 11.917600 9.587340 3.092680 10.015100 8.389460 4.274430 8.267000 9.615460 3.300310 6.322660 8.465740 4.563770 4.403200 9.497970 3.165990 2.511920 8.231580 4.432390 0.732491 9.446080 5.691780 13.670200 8.058380 6.918980 11.746400 9.416930 5.684190 10.280500 8.218410 6.829970 8.180880 9.807830 5.712320 6.404490 8.172970 7.022310 4.543940 9.497970 5.698780 2.511920 8.231580 6.965180 0.732491 9.471840 8.274780 13.588400 8.310320 9.408150 11.754200 9.592790 8.216440 10.007300 8.208590 9.496820 8.201890 9.341420 8.251590 6.288720 8.272480 9.412060 4.359910 9.497970 8.231580 2.511920 8.231580 9.497970 0.732491 
1.590020 0.602637 13.673800 0.579338 2.173570 11.999200 1.763560 0.702771 10.016600 0.417234 2.063260 8.030710 1.839620 0.768828 6.419510 0.579819 1.733310 4.344750 1.899590 0.633198 2.511920 0.633198 1.899590 0.732491 1.993670 3.114000 13.652600 0.696243 4.797320 11.892700 1.787900 3.279320 9.928800 0.860132 4.371870 7.981640 1.920860 3.149310 6.028720 0.575331 4.443970 4.376850 1.899590 3.165990 2.511920 0.633198 4.432390 0.732491 2.033810 5.724860 13.707100 0.707852 7.156850 11.695200 2.047400 5.771770 9.707940 0.683624 6.985720 8.023700 1.910800 5.888500 6.301890 0.528336 7.016610 4.425350 1.899590 5.698780 2.511920 0.633198 6.965180 0.732491 2.178390 8.280150 13.490600 0.693259 9.678550 11.841900 1.916080 8.232270 9.932960 0.547057 9.736140 8.159610 1.864460 8.394690 6.281380 0.692866 9.457430 4.432290 1.899590 8.231580 2.511920 0.633198 9.497970 0.732491 3.960780 0.791374 13.637300 3.124100 1.946610 11.848200 4.294350 0.835086 9.850640 2.991750 2.029930 8.042260 4.413340 0.777591 6.156170 3.113270 1.876700 4.238750 4.432390 0.633198 2.511920 3.165990 1.899590 0.732491 4.497150 3.437670 13.503800 3.163430 4.512100 11.805400 4.396000 3.238810 9.912640 3.263460 4.428780 7.992900 4.520100 3.253450 6.013200 3.062430 4.561040 4.176140 4.432390 3.165990 2.511920 3.165990 4.432390 0.732491 4.416390 5.803840 13.970100 3.230810 6.923980 11.791700 4.460110 5.973130 9.976260 3.215070 7.109050 8.148090 4.364680 5.537730 5.951910 3.018700 7.024350 4.232900 4.432390 5.698780 2.511920 3.165990 6.965180 0.732491 4.449190 8.324340 13.712400 3.179230 9.606900 11.628000 4.488750 8.567310 9.769490 3.241190 9.765660 8.074950 4.346330 8.107470 6.134450 3.125350 9.512900 4.452520 4.432390 8.231580 2.511920 3.165990 9.497970 0.732491 6.552890 0.620973 13.893100 5.756850 1.972330 11.917300 6.848530 0.757110 9.854020 5.634450 1.966170 8.072080 6.851450 0.717634 6.126640 5.675590 1.787020 4.300880 6.965180 0.633198 2.511920 5.698780 1.899590 0.732491 6.935360 3.324580 13.696100 5.583700 4.918720 12.072500 7.057600 3.300980 10.144200 5.759850 4.580520 8.223520 7.036800 3.184080 6.241990 5.738050 4.344370 4.374170 6.965180 3.165990 2.511920 5.698780 4.432390 0.732491 7.153360 5.723330 13.726000 5.744430 7.232840 11.904800 6.953770 5.900030 9.827400 5.662320 7.048550 7.841280 6.921680 5.801200 6.299090 5.632840 6.877870 4.428960 6.965180 5.698780 2.511920 5.698780 6.965180 0.732491 7.096830 8.338880 13.535700 5.679750 9.582300 11.918300 6.829900 8.137490 9.868430 5.679630 9.564950 8.003690 7.093130 8.241130 6.244590 5.793430 9.435070 4.177610 6.965180 8.231580 2.511920 5.698780 9.497970 0.732491 9.001990 0.681691 13.731700 8.273940 1.992900 11.892300 9.388800 0.605205 9.909090 7.987580 2.166130 8.206100 9.309220 0.550192 6.302190 8.172370 1.956470 4.458650 9.497970 0.633198 2.511920 8.231580 1.899590 0.732491 9.529890 3.205360 14.024300 8.337210 4.541250 11.935500 9.497490 3.018860 9.983970 8.344870 4.593300 8.066970 9.587960 3.174740 6.124660 8.227800 4.478700 4.413330 9.497970 3.165990 2.511920 8.231580 4.432390 0.732491 9.673330 6.120880 13.724700 8.401280 6.990120 11.827900 9.598490 5.662720 9.906880 8.281740 6.846660 8.088800 9.592380 5.743490 6.203770 8.025400 7.002020 4.281510 9.497970 5.698780 2.511920 8.231580 6.965180 0.732491 9.592490 8.461180 13.554600 8.206430 9.523530 11.785400 9.681740 8.271760 9.771190 8.250570 9.630280 8.144760 9.517890 8.204220 6.268020 8.122550 9.493450 4.261520 9.497970 8.231580 2.511920 8.231580 9.497970 0.732491 
1.858330 0.434119 13.604600 0.744145 1.777670 12.046700 1.817650 0.578924 9.909100 0.630143 1.803370 8.287590 1.955030 0.566114 6.450350 0.769211 1.868130 4.347580 1.899590 0.633198 2.511920 0.633198 1.899590 0.732491 2.005180 2.922830 13.870800 0.722721 4.596420 11.957200 1.932990 3.070730 10.050500 0.657079 4.428600 8.197800 2.126730 3.131980 6.092930 0.799097 4.490950 4.346740 1.899590 3.165990 2.511920 0.633198 4.432390 0.732491 2.119610 5.424710 14.201200 0.743479 6.929740 11.896300 2.005110 5.622710 10.050600 0.624679 6.845380 7.992330 1.936870 5.577430 6.270980 0.456317 6.962930 4.361930 1.899590 5.698780 2.511920 0.633198 6.965180 0.732491 2.251940 8.028900 13.750100 0.654567 9.378820 11.915700 1.978630 8.228640 10.031700 0.667262 9.311110 8.183030 1.992460 8.163460 6.303440 0.543521 9.476180 4.404490 1.899590 8.231580 2.511920 0.633198 9.497970 0.732491 4.396250 0.701981 13.709000 3.291450 1.887200 11.938700 4.424400 0.655519 9.956230 3.274720 1.940670 8.139880 4.536280 0.730538 6.179850 3.236410 1.900780 4.333290 4.432390 0.633198 2.511920 3.165990 1.899590 0.732491 4.636860 3.108740 13.646800 3.068950 4.215020 11.992300 4.509560 3.277850 9.759490 3.185530 4.492860 8.101370 4.538630 3.416710 6.267730 3.285240 4.418800 4.313850 4.432390 3.165990 2.511920 3.165990 4.432390 0.732491 4.312480 5.510900 13.616500 3.364130 7.025100 11.835300 4.592970 5.718040 9.874100 3.282480 6.932820 8.145980 4.562160 5.764390 6.320310 3.314180 6.932430 4.426330 4.432390 5.698780 2.511920 3.165990 6.965180 0.732491 4.702920 8.075400 13.688500 3.374900 9.438670 11.907500 4.503660 8.229330 9.972150 3.146550 9.631980 8.036450 4.560610 8.231800 6.276000 3.146160 9.482140 4.510200 4.432390 8.231580 2.511920 3.165990 9.497970 0.732491 6.978930 0.715478 14.054000 5.907590 1.813460 11.832400 7.004540 0.747243 10.047200 5.914130 1.964990 7.931540 6.938010 0.695045 6.284870 5.809790 1.956320 4.183200 6.965180 0.633198 2.511920 5.698780 1.899590 0.732491 7.156720 3.067850 13.467500 5.799390 4.396670 11.841200 6.973650 3.299360 10.081000 5.759980 4.557550 8.118530 7.041700 3.270460 6.184610 5.841910 4.540000 4.305300 6.965180 3.165990 2.511920 5.698780 4.432390 0.732491 6.809270 5.612910 13.642400 5.628980 6.958430 11.856200 7.011080 5.779430 10.109700 5.915440 7.121250 8.090000 7.088740 5.847410 6.172980 5.725620 6.961200 4.440270 6.965180 5.698780 2.511920 5.698780 6.965180 0.732491 7.143720 8.322580 13.788600 5.761730 9.493260 11.901100 7.172060 8.271520 10.087900 5.708260 9.696170 8.190750 7.033760 8.291140 6.246650 5.867430 9.417910 4.337640 6.965180 8.231580 2.511920 5.698780 9.497970 0.732491 9.423490 0.509026 13.890400 8.404170 2.011980 11.864600 9.551530 0.893799 10.113200 8.405960 1.966800 8.182770 9.566680 0.688411 6.351690 8.309520 2.015710 4.556010 9.497970 0.633198 2.511920 8.231580 1.899590 0.732491 9.635110 3.071180 13.636500 8.413740 4.604690 11.893700 9.541390 3.405830 10.133600 8.226220 4.402210 8.225910 9.622770 3.077590 6.312940 8.367790 4.345430 4.216320 9.497970 3.165990 2.511920 8.231580 4.432390 0.732491 9.664880 5.802030 13.672200 8.298250 7.142150 11.983800 9.535710 5.830410 9.977990 8.281170 7.152960 8.083050 9.488850 5.575060 6.399450 8.219130 6.989520 4.441710 9.497970 5.698780 2.511920 8.231580 6.965180 0.732491 9.920270 8.161990 14.022800 8.394110 9.609060 11.913600 9.646220 8.311560 10.052800 8.380630 9.709830 8.217960 9.505730 8.275890 6.316150 8.113550 9.460540 4.367590 9.497970 8.231580 2.511920 8.231580 9.497970 0.732491 
1.978030 0.683793 13.700000 0.618415 2.076260 11.814000 1.835460 0.683831 10.087000 0.578798 1.835140 8.273700 1.910050 0.582073 6.142670 0.713167 1.942690 4.370420 1.899590 0.633198 2.511920 0.633198 1.899590 0.732491 1.982730 3.039880 13.721600 0.805405 4.562780 12.115900 1.815610 3.189090 10.199700 0.601499 4.407920 8.010220 2.033500 3.024210 6.184280 0.869930 4.466530 4.422690 1.899590 3.165990 2.511920 0.633198 4.432390 0.732491 2.095180 5.818170 13.703000 0.524512 6.792020 11.945800 1.850450 5.744140 9.978150 0.601690 6.993850 8.094740 1.959100 5.583250 6.317760 0.665396 7.032750 4.448150 1.899590 5.698780 2.511920 0.633198 6.965180 0.732491 1.784210 8.253650 13.837500 0.738832 9.367940 11.906300 1.843830 8.221710 10.049300 0.607966 9.470310 8.068070 1.935670 8.235530 6.211910 0.486352 9.549690 4.413250 1.899590 8.231580 2.511920 0.633198 9.497970 0.732491 4.579580 0.796929 13.658800 3.191600 1.907520 11.890400 4.377970 0.613059 10.178400 3.089140 1.914180 8.173850 4.246480 0.513170 6.112200 3.190040 1.871000 4.335870 4.432390 0.633198 2.511920 3.165990 1.899590 0.732491 4.441800 3.338880 13.802000 3.168040 4.561070 12.039300 4.558800 3.170760 10.022000 3.160810 4.364810 8.150850 4.502190 2.951860 6.445160 3.347750 4.378300 4.400080 4.432390 3.165990 2.511920 3.165990 4.432390 0.732491 4.281060 5.817900 13.824700 3.132030 7.048390 11.876600 4.327490 5.773180 10.245600 3.244100 6.912870 8.133560 4.496730 5.797080 6.435230 3.189080 6.953030 4.396510 4.432390 5.698780 2.511920 3.165990 6.965180 0.732491 4.495010 8.331000 13.488300 3.138660 9.588090 11.782000 4.251600 8.197780 10.021500 2.984490 9.502460 8.071380 4.438810 8.213950 6.346340 3.075410 9.381000 4.246670 4.432390 8.231580 2.511920 3.165990 9.497970 0.732491 6.986970 0.694795 13.561900 5.668130 1.993470 12.061600 6.924180 0.755173 10.094900 5.576270 1.886470 8.175290 6.733740 0.682285 6.223810 5.762820 2.043650 4.284210 6.965180 0.633198 2.511920 5.698780 1.899590 0.732491 6.898090 3.291440 13.879000 5.681300 4.463700 12.036500 6.937830 3.210500 9.962150 5.679200 4.427360 8.052000 7.175440 3.073890 6.363170 5.765450 4.501560 4.326340 6.965180 3.165990 2.511920 5.698780 4.432390 0.732491 6.822010 5.978890 13.839100 5.801070 6.977180 11.890300 6.944400 5.733220 10.022900 5.777890 7.072330 8.280380 6.956640 5.787300 6.263270 5.842280 6.870050 4.461220 6.965180 5.698780 2.511920 5.698780 6.965180 0.732491 7.059510 8.410360 13.727800 5.703790 9.578630 11.813700 6.900010 8.315330 10.200100 5.723260 9.525700 8.205890 6.818670 8.343440 6.378720 5.691690 9.545600 4.341820 6.965180 8.231580 2.511920 5.698780 9.497970 0.732491 9.681630 0.608475 13.735900 8.351300 1.933720 11.952500 9.622070 0.683417 10.042700 8.237970 1.877210 8.176270 9.491460 0.638737 6.190840 8.208960 1.908780 4.377880 9.497970 0.633198 2.511920 8.231580 1.899590 0.732491 9.537130 3.365410 13.916200 8.090970 4.480250 12.058700 9.371130 3.270610 10.148700 8.244610 4.567460 8.232370 9.643250 3.218560 6.164780 8.410030 4.346950 4.428310 9.497970 3.165990 2.511920 8.231580 4.432390 0.732491 9.477120 5.581340 13.946100 8.202030 6.949630 11.933100 9.341240 5.757680 10.009500 8.220530 7.080200 8.135610 9.503880 5.691850 6.278720 8.266240 6.900590 4.386080 9.497970 5.698780 2.511920 8.231580 6.965180 0.732491 9.386090 8.227180 13.695800 8.293120 9.539470 11.873900 9.411650 8.255170 10.072600 8.289530 9.643410 8.016710 9.530810 8.324680 6.129320 8.152890 9.502220 4.248250 9.497970 8.231580 2.511920 8.231580 9.497970 0.732491 
2.036780 0.848837 14.026400 0.749913 2.136430 12.052100 2.018590 0.792826 10.058400 0.612895 1.976900 8.180440 1.795050 0.745583 6.335880 0.512511 1.886240 4.523460 1.899590 0.633198 2.511920 0.633198 1.899590 0.732491 2.022470 3.295070 14.002600 0.650621 4.617960 11.831600 1.969930 3.315600 10.255800 0.568057 4.532610 8.272370 1.870580 3.163240 6.360530 0.548022 4.448800 4.522660 1.899590 3.165990 2.511920 0.633198 4.432390 0.732491 1.906460 5.828920 13.626600 0.509205 7.231210 11.897000 1.812230 5.957870 10.070300 0.510862 7.235570 8.223510 1.762260 5.902580 6.339390 0.559368 6.971600 4.498740 1.899590 5.698780 2.511920 0.633198 6.965180 0.732491 1.854350 8.524250 13.793200 0.606813 9.878720 11.926000 2.018890 8.372290 10.013600 0.542805 9.629890 8.125350 1.808460 8.264520 6.378810 0.647022 9.589190 4.406710 1.899590 8.231580 2.511920 0.633198 9.497970 0.732491 4.462180 0.851460 13.897200 3.255950 2.076830 11.943900 4.445660 0.557905 10.073900 3.215980 2.004770 8.212470 4.432420 0.745287 6.302160 2.948250 2.012930 4.357840 4.432390 0.633198 2.511920 3.165990 1.899590 0.732491 4.508610 3.405240 13.748900 3.276390 4.682570 11.887600 4.449760 3.273780 10.115800 3.066590 4.510750 8.123920 4.382450 3.298730 6.022390 3.025140 4.687460 4.412320 4.432390 3.165990 2.511920 3.165990 4.432390 0.732491 4.489520 6.012770 13.829000 3.137640 7.094710 12.020400 4.552320 5.918090 9.925930 3.089040 7.116710 8.082560 4.239820 5.826760 6.224610 2.984260 7.283530 4.557010 4.432390 5.698780 2.511920 3.165990 6.965180 0.732491 4.587600 8.484720 13.980500 3.347750 9.688230 11.912900 4.333420 8.205780 9.967210 3.136430 9.641630 8.125520 4.467910 8.357430 6.304930 3.111390 9.681690 4.382550 4.432390 8.231580 2.511920 3.165990 9.497970 0.732491 7.201410 0.694570 13.852500 5.761520 2.182830 11.960400 7.112200 0.966932 10.166900 5.647140 1.945600 8.154000 6.867370 0.789132 6.336010 5.686740 1.905740 4.539470 6.965180 0.633198 2.511920 5.698780 1.899590 0.732491 7.155690 3.261680 13.881200 5.712720 4.638570 11.989900 7.068070 3.333980 10.000500 5.652480 4.443380 7.995170 6.959320 3.172820 6.430780 5.674800 4.638950 4.381800 6.965180 3.165990 2.511920 5.698780 4.432390 0.732491 6.895330 5.916400 13.730900 5.639460 7.146310 11.878900 6.984310 5.881280 10.206600 5.826710 6.919590 8.163560 6.931630 5.875910 6.267890 5.577640 7.059410 4.392310 6.965180 5.698780 2.511920 5.698780 6.965180 0.732491 6.949170 8.537400 13.357900 5.757510 9.890670 11.890200 7.025610 8.371430 10.115600 5.618700 9.549760 8.274270 7.004770 8.293180 6.470100 5.538750 9.634220 4.554490 6.965180 8.231580 2.511920 5.698780 9.497970 0.732491 9.524510 1.011990 14.017500 8.352570 1.996200 12.026400 9.521960 0.674010 10.116000 8.185620 2.072880 8.065470 9.387810 0.649400 6.239600 8.127800 2.074390 4.394610 9.497970 0.633198 2.511920 8.231580 1.899590 0.732491 9.711150 3.404210 13.720400 8.263200 4.621520 11.965800 9.499870 3.172760 10.099100 8.292480 4.530480 8.214760 9.333650 3.134520 6.188290 8.137250 4.577590 4.351190 9.497970 3.165990 2.511920 8.231580 4.432390 0.732491 9.405130 6.077920 13.885700 8.279890 7.100400 11.983700 9.498140 5.789330 10.188300 8.239050 6.988650 8.311830 9.428490 5.671460 6.343750 8.229860 7.023760 4.471870 9.497970 5.698780 2.511920 8.231580 6.965180 0.732491 9.373010 8.737120 13.989500 8.334040 9.738130 11.987000 9.528380 8.338030 10.124100 8.140630 9.820380 8.219400 9.450130 8.310600 6.432800 8.142550 9.480120 4.365130 9.497970 8.231580 2.511920 8.231580 9.497970 0.732491 