-213743.5591964672
-213743.5567546536
-213742.4394294913
-213743.2703601380
-213742.4037930540
-213743.4935898192
-213744.0567758168
-213743.8461142578
-213743.2761994290
-213743.4293857820
-213743.7270015923
-213742.7237752618
-213743.4491039675
-213743.1897551191
-213741.8853172659
-213743.2870982688
-213743.3044626696
-213743.2560862702
-213742.8951837184
-213742.7263641529
-213742.0235206224
-213743.5370370123
-213743.2893483782
-213743.5959921095
-213742.6233636203
-213743.0646190775
-213742.9687982688
-213742.2416317061
-213744.2318432523
-213743.3624037345
-213743.5416070283
-213742.8961370693
-213743.3434239299
-213743.5349854100
-213743.4839205258
-213743.1829099592
-213743.9224661373
-213743.1343309711
-213743.4354033076
-213743.2256459828
-213743.2440860496
-213742.7729633768
-213742.7582561677
-213743.3187297345
-213743.1577685447
-213742.4491530714
-213742.4663916195
-213743.2999767368
-213743.6186321175
-213742.8469677302
-213743.1935411750
-213742.3688518676
-213743.5136595758
-213743.3469548791
-213742.2092275731
-213742.4885936602
-213742.4485370056
-213742.3293337263
-213743.2651083408
-213742.8775674763
-213743.6063286260
-213742.3729957532
-213742.6649250645
-213743.2255813558
-213743.0731947454
-213743.8340724038
-213744.1799048827
-213743.1613762301
-213743.0051158070
-213743.4402609479
-213743.4236234992
-213742.5663354973
-213742.9645278501
-213742.9894732066
-213742.8298851033
-213742.9694918869
-213743.8784826078
-213742.2429442472
-213743.3964726600
-213743.3358069191
-213742.8762069071
-213742.3908265572
-213743.1907624845
-213743.8186563381
-213742.8361917498
-213743.3267358681
-213742.8961414231
-213742.6788081768
-213743.8243715452
-213743.6435120306
-213743.2964757200
-213742.6734634527
-213744.1523494102
-213742.0840451362
-213742.9443210842
-213742.9156889933
-213743.5199843179
-213743.8923876253
-213742.3011274935
-213742.0987874480
-213744.2264767591
-213744.0436917668
-213743.1623497174
-213742.7926212891
-213743.0575382671
-213742.8764220130
-213743.3735914232
-213743.4195930850
-213742.7567532829
-213742.5500192790
-213743.7256561254
-213743.1945558876
-213742.7417574971
-213743.3500086768
-213743.3529456015
-213742.9152015013
-213743.5468735196
-213742.9956824364
-213743.6625102029
-213743.4241377944
-213743.5497746614
-213742.7004957863
-213743.1078040890
-213741.6983538295
-213741.5554057600
-213741.9288382019
-213742.2399912678
-213741.9945632194
-213741.1249462834
-213741.4217960933
-213742.0995462374
-213741.8724470974
-213741.0431585217
-213740.6794957831
-213741.7704922982
-213741.3173181186
-213742.4506907867
-213741.5067904446
-213742.6436910688
-213741.9722596802
-213741.9742291042
-213741.0417404004
-213740.7366586025
-213740.4443034331
-213740.3321493989
-213741.9135709825
-213740.9809269017
-213741.9056301563
-213741.3681756520
-213741.2825509489
-213742.8792201597
-213742.0648117215
-213741.2758931395
-213741.6746057739
-213741.2205710342
-213742.0811835870
-213741.9693813960
-213740.2864912808
-213741.4706565832
-213741.1314511649
-213740.4949342956
-213740.5192117487
-213741.7172077815
-213741.9999688970
-213741.4348395983
-213742.5253139270
-213741.3870604889
-213740.6919919311
-213741.3586893552
-213742.2182769911
-213741.6771349361
-213741.3721143638
-213740.9701816702
-213741.3968863837
-213741.0999103131
-213742.5593414912
-213741.4340194472
-213742.0944000204
-213740.4981651033
-213741.7217711307
-213742.2720692724
-213740.8407011951
-213741.3253328237
-213741.4920467723
-213741.3487736627
-213741.1607570097
-213741.8028825535
-213741.4278088569
-213742.0526679608
-213741.9298793094
-213740.6093315003
-213739.8486142530
-213742.2950665658
-213742.6754923336
-213741.3477145956
-213740.8215090056
-213741.6041451592
-213741.5138396898
-213741.1553154131
-213740.6173262051
-213741.1889168470
-213741.9882523551
-213741.1774156832
-213741.1643619739
-213741.2536539552
-213740.9406702434
-213742.4895169425
-213741.1872183123
-213742.1007017689
-213741.0611534102
-213741.4264270627
-213742.2292386892
-213742.1481924377
-213741.4510764954
-213740.5650180328
-213742.4445255033
-213742.1804420100
-213741.4602987057
-213741.1992306420
-213741.2125495262
-213741.0706289586
-213742.9938191368
-213741.6733457508
-213742.0071550155
-213741.0470965533
-213741.4411774019
-213741.3326715980
-213741.1338039973
-213740.4237056395
-213740.6204405480
-213740.6674158332
-213741.9295115476
-213741.6487278834
-213741.5361858148
-213740.6840438939
-213741.2189352218
-213741.2526521681
-213742.5192286451
-213741.6473960221
-213741.8690034967
-213740.6216558084
-213740.6711846100
-213740.1723332642
-213741.7053332775
-213742.0726796212
-213741.5802837682
-213740.2505085786
-213740.8234580210
-213741.5656591457
-213741.8191534647
-213742.0706255698
-213741.0256338458
-213742.4139781391
-213741.7943275663
-213740.9114948772
-213741.3892259708
-213741.6843757494
-213743.0448860618
-213741.2657243812
-213741.4120273423
-213740.5989968886
-213742.4910515285
-213741.1418280903
-213742.0320379218
-213742.2367139287
-213742.8023636451
-213740.4359009657
-213741.5843046584
-213741.3216768381
-213741.0229917565
-213741.9540182565
-213742.3537254671
-213741.7537088605
-213741.5691690061
-213742.0108601176
-213742.5218354957
-213741.1907394655
-213742.1833329475
-213741.0978168052
-213741.8252312636
-213741.6066235721
-213741.7854957033
-213740.9339914812
-213741.8384312341
-213742.7239175774
-213741.5878634994
-213741.4406690933
-213740.9436252637
-213742.1370071981
-213742.7169382654
-213742.0383815758
-213741.8927505998
-213741.8397560203
-213741.7150639326
-213742.5578096263
-213740.9416460436
-213741.6817487624
-213742.0693882682
-213742.1948470367
-213741.6874824732
-213742.9460687353
-213742.4646402948
-213741.0838492016
-213740.7628283352
-213741.7676204087
-213741.9037544755
-213741.4469119291
-213741.9183679414
-213740.8959184004
-213740.5784201839
-213742.5187768000
-213740.8845475792
-213742.4009648387
-213742.4762610526
-213742.4500676460
-213740.5986673587
-213741.9004798575
-213741.1515757525
-213741.2943443630
-213741.8825430652
-213741.4783553641
-213741.7195135381
-213741.7905439593
-213742.2637930658
-213742.6050794747
-213742.3533217862
-213740.5815575204
-213741.4904366746
-213741.3954277175
-213740.7107154046
-213741.1288904376
-213741.7896072074
-213741.4890580098
-213741.8220935188
-213740.7401394828
-213739.9591624073
-213741.7036320218
-213741.5723158667
-213741.9904865458
-213742.0875037032
-213742.0192699320
-213741.0884696946
-213742.0699918167
-213740.5603206675
-213740.9683987802
-213740.9904775534
-213742.5470522858
-213741.2492262548
-213742.5979963514
-213741.0590369088
-213740.5980663953
-213741.7100017987
-213740.6481055463
-213742.4707578222
-213740.4164826496
-213742.1880198364
-213740.9701086076
-213741.3789499997
-213742.0306359913
-213741.7707108057
-213741.7466860104
-213741.7149957680
-213741.1958167017
-213741.3051195270
-213741.8432249276
-213740.6195266537
-213742.1492950430
-213741.1230835281
-213741.8594674030
-213742.0044051690
-213742.0558467948
-213741.8032533086
-213741.4307602036
-213742.8608962855
-213741.4354653241
-213740.6509234212
-213742.2356858826
-213741.6405001131
-213742.5181845443
-213740.6728617836
-213742.1334909430
-213741.4422166047
-213742.0436505162
-213740.7666535756
-213742.7242679239
-213742.1125508302
-213741.6070326952
-213741.2810615338
-213740.9969971290
-213741.4432472359
-213741.5350455218
-213741.0965154207
-213739.9224381949
-213741.3208628096
-213742.0896520420
-213742.2908709785
-213741.7987465591
-213741.7408948835
-213741.5932358430
-213741.0562233877
-213741.9007843529
-213741.4616585947
-213741.6274099405
-213741.0617924696
-213741.0812620792
-213742.1427026769
-213742.6675565414
-213741.7335905316
-213740.8786779475
-213741.3575746408
-213740.8824289008
-213740.8528797863
-213741.0976890477
-213742.3573520643
-213741.2796397390
-213741.3041688973
-213742.0550146707
-213740.6794570069
-213741.9226670681
-213742.6183016225
-213742.1602778299
-213742.7295287009
-213740.2456327066
-213741.6966905336
-213741.5470204357
-213742.3363535832
-213741.8485499235
-213741.5350725971
-213741.7264352980
-213741.9927806016
-213741.4683476972
-213741.5308729281
-213741.3296386171
-213741.7705984227
-213742.5370687009
-213741.7049651075
-213741.2706935881
-213741.5968935973
-213741.1691619261
-213741.0633009327
-213741.3483331104
-213739.1723844089
-213739.8036241744
-213740.8446458934
-213740.3121924335
-213740.4531954332
-213741.4661703783
-213740.0865402587
-213740.2433212356
-213740.1194267135
-213739.8943114194
-213741.1180081968
-213739.7064489189
-213739.2773530049
-213739.8693350420
-213739.8257512477
-213739.8720455680
-213740.5693612418
-213741.3075914092
-213739.9543729315
-213739.8968468402
-213739.7970652783
-213742.0799796193
-213738.8089822193
-213740.4257931609
-213741.6803500972
-213738.9166124969
-213740.1338461622
-213739.7359195286
-213741.9506614601
-213739.9465229913
-213740.5662312523
-213740.2231691645
-213740.1953162717
-213740.4338527648
-213739.6569232467
-213740.3571053678
-213740.7426685089
-213738.7547206778
-213740.7502260628
-213740.1118872552
-213739.1064382988
-213740.6723152430
-213738.9469801299
-213739.9872812915
-213740.9988291355
-213739.4626972278
-213739.9921989329
-213739.3695333386
-213740.2255475756
-213741.1341180166
-213739.5227556106
-213739.4016959706
-213741.6030852757
-213738.8399427884
-213741.6761267543
-213741.7657694904
-213740.0826986915
-213738.7976626916
-213740.4263983421
-213740.5718917645
-213739.5415745960
-213739.8687698615
-213739.8091920318
-213741.7597012156
-213739.5405285904
-213741.2812623538
-213739.2893873757
-213738.1205986825
-213740.5778378602
-213740.4133942935
-213740.3550986642
-213740.3385395844
-213741.1937883651
-213739.0727989050
-213739.0892313159
-213739.4138832694
-213739.3290727310
-213740.1065176327
-213740.0076511897
-213741.1472642447
-213739.8236943392
-213741.0468067520
-213739.6801952391
-213740.2413467775
-213739.8092600603
-213739.8457328395
-213740.0317568028
-213740.7182992174
-213739.2018034530
-213739.5193555481
-213741.2736216692
-213739.4018882190
-213739.6648439365
-213739.1976228320
-213740.2314421057
-213741.0493737379
-213738.3410215094
-213739.4945195814
-213739.8208504774
-213739.1885164061
-213739.6363504876
-213740.3461307443
-213741.2949971641
-213740.3004629661
-213741.1604658478
-213739.3472895284
-213740.0822540575
-213739.4972139167
-213738.6435061167
-213740.9950490660
-213741.1817154901
-213739.5087941295
-213739.4975331062
-213741.2284877784
-213739.4387271274
-213739.9979003982
-213741.5095472300
-213741.6984624029
-213739.5504928551
-213738.9636661509
-213740.6817038509
-213740.4375408598
-213740.4936304622
-213740.3956112456
-213739.4911120358
-213739.2525707807
-213741.2592223569
-213740.9556628999
-213739.6590820619
-213740.5126376142
-213739.8936001138
-213739.4062606803
-213740.5389619076
-213737.6408534021
-213739.3582358521
-213739.3878817031
-213739.9968624200
-213739.7462499225
-213740.3716936631
-213740.6599263078
-213741.0131300786
-213739.6482213181
-213740.4611491849
-213741.3810158880
-213737.3555512875
-213738.5823365570
-213739.7196692979
-213739.9326431444
-213739.3561816647
-213739.9194721540
-213739.9417858974
-213739.6087181430
-213740.3562528351
-213741.0686089214
-213739.1651087650
-213739.5995970230
-213740.0121259658
-213740.2150962270
-213739.6824857574
-213739.2947130518
-213738.3202199025
-213739.9649172070
-213740.5911651800
-213740.9086046200
-213739.0051971183
-213739.9490468472
-213739.2298928128
-213740.5745727662
-213741.4593932469
-213740.9409638542
-213741.1394170256
-213740.0117816057
-213739.3549130699
-213738.9016198404
-213741.8390157346
-213739.3901839223
-213739.1171096514
-213738.6465529754
-213740.8555768426
-213740.1143772330
-213740.2328926085
-213739.1986548237
-213740.2997146531
-213739.8503851699
-213739.6601826263
-213741.9758608348
-213739.6397721832
-213740.2993618575
-213740.4392799394
-213739.3457997051
-213738.7205554240
-213741.2388649759
-213739.6505107479
-213741.4613210374
-213739.9899277347
-213739.5063154445
-213739.4451056120
-213739.5040122729
-213738.8133047477
-213740.1189228947
-213739.1640257518
-213740.3817976583
-213740.1020702040
-213739.0773653835
-213741.9308600077
-213740.2274852983
-213739.7941008701
-213740.8651598759
-213741.2835391304
-213740.4493387637
-213740.4030687976
-213740.0621562731
-213739.5334734947
-213741.1856916176
-213740.5159320965
-213740.7212150533
-213740.0830562491
-213739.3222316529
-213738.9433241443
-213739.6561192864
-213739.2291687179
-213740.5286483847
-213739.5375036368
-213740.4849503026
-213738.7671130144
-213739.2678956882
-213739.7617608199
-213740.2629290790
-213739.7848283187
-213737.8922169338
-213739.8356715661
-213739.1044066969
-213740.5018676204
-213741.1018405526
-213741.0094898756
-213739.0274874600
-213739.8567601170
-213740.5442094870
-213739.8547139569
-213739.8809653238
-213740.8269632555
-213740.6435592042
-213739.4766033338
-213738.8798522294
-213740.5857678019
-213739.6203670646
-213738.8903789535
-213738.5757312655
-213740.3097099388
-213739.1192660176
-213739.2079250621
-213739.9809618556
-213741.0420635356
-213740.9370357548
-213740.0306173261
-213740.4924758831
-213738.9678909904
-213739.8505861259
-213740.5800132744
-213738.4839503949
-213740.4558670470
-213740.4212960714
-213739.5512325966
-213739.6648550932
-213740.2506975617
-213739.5037522682
-213741.1242971559
-213739.9309458343
-213739.5846638233
-213739.2170056372
-213740.3537587757
-213739.2881820475
-213739.3902084125
-213739.6774047116
-213739.3316673365
-213740.2940235281
-213740.0779362911
-213739.7555356715
-213739.1927904982
-213740.5617907626
-213739.0235307886
-213740.1508017119
-213739.1998589275
-213739.4558459455
-213740.5748175326
-213738.6616521644
-213740.9912129411
-213739.2045247275
-213740.1983282998
-213739.6182237599
-213740.0670329614
-213740.4332037733
-213740.1372718034
-213740.2370432971
-213741.0188563063
-213740.1635160953
-213738.8550909580
-213741.2851938547
-213739.5686218958
-213741.3469495475
-213739.2021554323
-213739.6708697616
-213740.0587069580
-213740.6224252104
-213739.7308409319
-213738.9810427968
-213740.3948015708
-213740.6182266298
-213739.3812222609
-213738.9020691004
-213741.5224175346
-213741.7288411926
-213739.9732081077
-213741.1846019377
-213738.6102415597
-213740.8539857930
-213741.3123661908
-213739.9344995050
-213740.0687732655
-213740.6883311836
-213741.5002159020
-213739.0489576505
-213740.3886583287
-213740.6255368322
-213741.6697708552
-213740.3026420538
-213740.8297311975
-213740.8776937117
-213739.1153602315
-213740.3981029921
-213741.9500056657
-213741.5995140536
-213738.3869862998
-213740.2990421237
-213739.1880456491
-213740.9097454573
-213739.7657413012
-213740.7046366534
-213739.9168575481
-213740.5806168228
-213740.5891535784
-213739.8203647542
-213740.0134404117
-213739.8868803985
-213739.4071400162
-213740.2072691444
-213739.4984270002
-213738.8333223946
-213740.3934034499
-213739.4818680564
-213739.8485494899
-213739.0330006225
-213741.1013895239
-213740.3930337832
-213741.2038858296
-213739.9791284886
-213738.3203548710
-213741.1016734747
-213737.7000395240
-213739.5877993912
-213742.1069999799
-213740.5975074735
-213738.9798531151
-213740.2155834469
-213741.2584208456
-213739.9433085105
-213741.4316940983
-213740.2799717052
-213740.1056508140
-213740.9662137061
-213741.9155106099
-213740.1421697166
-213740.6988010359
-213738.9747912533
-213740.5718694512
-213740.0504906165
-213740.2158337916
-213741.1840597509
-213739.9062701426
-213740.8577715768
-213740.1621054571
-213738.9775127999
-213741.1962961663
-213739.3610742716
-213741.8818331202
-213739.0107735473
-213741.7610925336
-213740.0087812785
-213740.6219989440
-213740.7214443092
-213740.2726508903
-213739.7142062043
-213739.6051807991
-213739.2017825003
-213737.6916799146
-213740.2333092148
-213740.5315240838
-213739.8343501813
-213739.9407390755
-213739.3916172819
-213738.4856980460
-213738.6817627382
-213740.3779350023
-213739.4193620096
-213741.2386905509
-213739.7208215640
-213740.5038815349
-213738.4013409854
-213740.3689604156
-213741.3858765215
-213738.9544968667
-213740.4516828884
-213741.1350433398
-213740.9415857704
-213739.1266869703
-213739.7436345003
-213741.2401508499
-213738.4362197217
-213740.7185552765
-213740.1207793914
-213739.5510725937
-213740.6681645545
-213740.5055003402
-213739.5698849123
-213740.7886415987
-213740.0384487626
-213741.0514535041
-213739.0682558283
-213739.6978178759
-213740.6475894824
-213739.9865687614
-213740.0595369053
-213740.2722355085
-213740.7125689080
-213739.8236041334
-213738.6504182165
-213740.5562137893
-213740.0511899491
-213740.5425187076
-213739.3005689418
-213741.1741224254
-213739.6008355492
-213740.5992592063
-213740.1353226519
-213742.6098063643
-213740.3070467606
-213741.2512646596
-213739.8349768595
-213740.1553807077
-213739.5962473016
-213739.6940031119
-213740.8098736897
-213739.4147494078
-213739.2560575114
-213739.3188539037
-213741.0700135731
-213740.0682461810
-213741.6471766984
-213738.7519509670
-213739.0329599415
-213739.5173243544
-213740.3698367582
-213740.8565163157
-213741.6151997841
-213738.9681977988
-213739.4258417205
-213739.9866682190
-213740.1769855946
-213740.5840366136
-213740.1730244333
-213740.5030324037
-213738.9989929226
-213741.7564305432
-213740.2519043866
-213740.3278548982
-213741.2408443320
-213739.9770087217
-213738.9905353522
-213740.3387936026
-213740.1767733458
-213739.0152305000
-213738.1071023800
-213739.2409466214
-213740.6012899920
-213740.6853923541
-213740.8318953189
-213739.9548929411
-213739.2264981926
-213740.0505029977
-213740.7509422664
-213740.2658538946
-213738.0831124152
-213739.1296272965
-213739.7160213397
-213739.9420467186
-213740.9833438168
-213741.3635514853
-213739.9585253888
-213739.5284370756
-213738.3134634518
-213741.2670214118
-213739.7918540261
-213740.7641298557
-213739.9015289670
-213740.8216125449
-213739.7756269251
-213739.6405749190
-213740.2008966463
-213740.6038353448
-213739.6188048590
-213740.1755262480
-213740.4799961979
-213739.4265558833
-213739.5011187503
-213740.4556250017
-213740.2968599067
-213740.7649471496
-213740.9200369390
-213740.5083802571
-213741.9656760218
-213740.2861730436
-213739.3390848878
-213739.4362012307
-213740.6032481232
-213740.2498983633
-213739.6443405664
-213739.8131393152
-213740.8602512142
-213739.3268865684
-213740.6635998447
-213739.8096148967
-213740.8048625771
-213739.3454315351
-213738.7430064489
-213741.4124291184
-213739.0600612559
-213738.9649029083
-213740.1481416631
-213740.0999523420
-213739.0170689011
-213741.3677561885
-213740.6600638613
-213740.5855747371
-213740.2110956093
-213740.4691151816
-213741.0085539400
-213740.5083926382
-213740.1216920613
-213739.7895082686
-213740.0818364988
-213740.4414500473
-213740.6027075690
-213739.1249721089
-213740.5231104598
-213740.1111622079
-213738.7630386538
-213739.7617221797
-213740.8290775800
-213739.7756505990
