1.758850 2.804170 14.538500 0.488884 1.098110 13.253000 1.954760 2.827060 12.156800 0.666541 0.996426 10.640400 1.930200 2.718860 9.559530 0.856757 0.917044 8.145160 1.899590 2.686430 6.796100 0.633198 0.895478 5.605580 1.618460 6.297920 14.556500 0.385993 4.571840 13.456400 1.674730 6.521120 12.101500 0.663355 4.517190 10.815500 1.894760 6.285820 9.406670 0.679866 4.512340 7.931570 1.899590 6.268340 6.796100 0.633198 4.477390 5.605580 1.707660 9.877600 14.675700 0.584593 8.093060 13.504400 1.790970 9.948490 12.007200 0.510786 8.208030 10.646500 1.938930 9.809570 9.283990 0.565562 7.938390 8.009310 1.899590 9.850250 6.796100 0.633198 8.059300 5.605580 1.849930 13.607700 14.832500 0.500662 11.870500 13.472200 1.860900 13.428100 12.070800 0.754823 11.672600 10.741700 1.968450 13.442200 9.471320 0.626929 11.708200 8.224330 1.899590 13.432200 6.796100 0.633198 11.641200 5.605580 4.242710 2.996200 14.638700 2.968250 0.959534 13.640600 4.336130 2.724670 12.209600 3.178560 0.873127 10.698800 4.385820 2.752850 9.455670 3.235730 0.915953 8.090150 4.432390 2.686430 6.796100 3.165990 0.895477 5.605580 4.275930 6.113880 14.592400 3.052460 4.703570 13.395200 4.375800 6.419460 12.089400 3.117430 4.558820 10.833600 4.463540 6.303270 9.517960 3.111400 4.525880 8.079560 4.432390 6.268340 6.796100 3.165990 4.477390 5.605580 4.355020 10.185800 14.833400 3.117110 8.264270 13.532500 4.507480 9.865780 12.271400 3.190540 8.133090 11.002800 4.303500 9.857570 9.597290 3.153670 7.917450 8.243990 4.432390 9.850250 6.796100 3.165990 8.059300 5.605580 4.349110 13.493100 14.591900 3.031410 11.740900 13.698500 4.326140 13.514600 12.156000 3.260950 11.564600 10.867300 4.401580 13.263500 9.476890 3.273760 11.548000 8.099120 4.432390 13.432200 6.796100 3.165990 11.641200 5.605580 6.881510 2.443650 14.590900 5.577430 0.967289 13.472600 6.703370 2.648520 12.070300 5.790720 0.883421 10.768500 7.103830 2.618130 9.518690 5.761120 0.863068 8.143950 6.965180 2.686430 6.796100 5.698780 0.895477 5.605580 6.968800 6.240400 14.515300 5.544570 4.525840 13.430000 6.884080 6.325490 11.917300 5.642130 4.508690 10.733400 6.861100 6.293520 9.530250 5.805180 4.370560 8.141970 6.965180 6.268340 6.796100 5.698780 4.477390 5.605580 6.855570 9.785750 14.494700 5.491990 7.904720 13.429500 6.981500 9.797010 12.144500 5.601350 8.149710 10.749500 6.902760 10.027100 9.692670 5.700340 8.086490 8.204500 6.965180 9.850250 6.796100 5.698780 8.059300 5.605580 7.027330 13.561700 14.692500 5.731810 11.824900 13.628100 6.897730 13.535800 12.132400 5.632240 11.626200 11.066700 6.975610 13.445400 9.467970 5.737940 11.641100 8.292620 6.965180 13.432200 6.796100 5.698780 11.641200 5.605580 9.385560 2.608690 14.524000 8.228190 0.924726 13.191500 9.464960 2.786330 11.916800 8.248340 0.941473 10.632300 9.516030 2.648860 9.447370 8.261880 0.840939 8.105710 9.497970 2.686430 6.796100 8.231580 0.895477 5.605580 9.284540 6.143960 14.844400 8.084180 4.447710 13.554300 9.479590 6.316020 12.214900 8.130980 4.465340 10.834100 9.537720 6.284050 9.351290 8.380000 4.405180 8.172630 9.497970 6.268340 6.796100 8.231580 4.477390 5.605580 9.297870 9.742830 14.591400 8.185730 7.941330 13.244300 9.529670 9.722000 12.047100 8.135570 7.944560 10.742200 9.629090 9.840150 9.362450 8.166080 7.929140 8.180310 9.497970 9.850250 6.796100 8.231580 8.059300 5.605580 9.364840 13.569600 14.634300 8.222750 11.613200 13.403500 9.538050 13.465200 12.021400 8.215840 11.665800 10.809600 9.533390 13.375100 9.330820 8.199240 11.619300 8.176700 9.497970 13.432200 6.796100 8.231580 11.641200 5.605580 
1.859170 2.627610 14.628800 0.596945 0.879433 13.585700 1.832850 2.536600 12.054300 0.763122 0.789703 10.711700 1.779530 2.611270 9.422470 0.648544 0.717135 8.255990 1.899590 2.686430 6.796100 0.633198 0.895478 5.605580 1.864000 6.301540 14.945400 0.474754 4.369140 13.942200 1.873210 6.208700 12.366300 0.568433 4.622200 11.005100 1.889770 6.460840 9.544030 0.539128 4.361000 8.267340 1.899590 6.268340 6.796100 0.633198 4.477390 5.605580 1.656070 9.784530 14.674100 0.486463 7.893860 13.617400 1.900060 9.536880 12.097800 0.470365 8.165230 10.796100 1.960490 9.840500 9.341460 0.462091 8.189860 8.293620 1.899590 9.850250 6.796100 0.633198 8.059300 5.605580 1.953590 13.215900 14.646200 0.676916 11.499900 13.429000 1.754560 13.574600 12.270700 0.654677 11.373900 10.880900 2.033790 13.332300 9.325390 0.568309 11.728400 8.053040 1.899590 13.432200 6.796100 0.633198 11.641200 5.605580 4.319730 2.520680 15.012600 3.160650 0.754839 13.762700 4.457370 2.599220 11.893000 3.183180 0.596267 10.775900 4.225110 2.545180 9.482110 3.142620 0.924670 8.239340 4.432390 2.686430 6.796100 3.165990 0.895477 5.605580 4.365400 6.012320 14.774700 3.218060 4.268730 13.444300 4.364640 5.967250 12.324200 3.009410 4.505180 10.798700 4.483830 6.288000 9.434430 3.179480 4.554870 8.206620 4.432390 6.268340 6.796100 3.165990 4.477390 5.605580 4.273770 9.485880 14.942500 3.144330 7.964850 13.527500 4.458400 9.623690 12.293200 3.252180 8.114970 10.823000 4.412680 9.805970 9.452840 3.154670 8.000320 8.111620 4.432390 9.850250 6.796100 3.165990 8.059300 5.605580 4.345250 13.391100 14.780400 3.344510 11.496700 13.475000 4.387840 13.291500 12.228100 3.103820 11.543300 10.838100 4.436660 13.377900 9.461350 3.315250 11.654600 7.973750 4.432390 13.432200 6.796100 3.165990 11.641200 5.605580 7.050770 2.229190 15.086600 5.587820 0.917845 13.498300 6.866520 2.644930 12.146000 5.734160 0.730130 10.852100 6.886660 2.574700 9.671840 5.735040 0.762033 8.252400 6.965180 2.686430 6.796100 5.698780 0.895477 5.605580 6.821900 6.193360 14.770200 5.707350 4.007960 13.664700 6.880310 6.179220 12.339500 5.718700 4.468900 10.910900 7.012350 6.190300 9.421510 5.671360 4.349240 8.344420 6.965180 6.268340 6.796100 5.698780 4.477390 5.605580 7.020500 9.825110 15.050800 5.678020 7.879040 13.582700 7.077230 9.745620 12.245800 5.771210 8.002260 10.921800 6.975650 9.673300 9.519830 5.695250 8.089450 8.075360 6.965180 9.850250 6.796100 5.698780 8.059300 5.605580 6.819900 13.505600 14.787900 5.856710 11.393800 13.762900 6.806160 13.329500 12.317900 5.618880 11.436400 10.913200 7.070830 13.268500 9.598280 5.763550 11.441200 8.442200 6.965180 13.432200 6.796100 5.698780 11.641200 5.605580 9.518850 2.388130 14.931500 8.255730 0.943372 13.447800 9.539830 2.710280 12.171700 8.530730 0.993638 10.796200 9.526340 2.821420 9.656070 8.438970 0.982257 8.082230 9.497970 2.686430 6.796100 8.231580 0.895477 5.605580 9.274820 5.986910 14.814600 8.189780 4.216590 13.664300 9.419030 6.179130 12.502700 8.189360 4.623980 10.927400 9.688480 6.299940 9.421250 8.097360 4.373700 8.325400 9.497970 6.268340 6.796100 8.231580 4.477390 5.605580 9.599060 10.445100 15.338500 8.073180 8.068550 13.804400 9.488190 9.531150 12.356200 8.167530 7.714910 11.015400 9.657950 9.851840 9.609530 8.162120 8.050450 8.083610 9.497970 9.850250 6.796100 8.231580 8.059300 5.605580 9.457170 13.454800 14.531500 8.317310 11.530200 13.666300 9.485850 13.406400 11.991100 8.256910 11.512300 10.986500 9.577800 13.280300 9.560340 8.251180 11.350600 8.293260 9.497970 13.432200 6.796100 8.231580 11.641200 5.605580 
1.876320 2.615750 14.746000 0.629716 0.883730 13.665900 1.763380 2.830610 12.226400 0.667806 1.180840 10.879300 1.990740 2.869460 9.487540 0.663005 1.010040 8.167410 1.899590 2.686430 6.796100 0.633198 0.895478 5.605580 1.798730 6.604730 14.581500 0.445038 4.631090 13.368800 1.762390 6.217380 12.069800 0.357539 4.395100 10.735700 1.757280 6.166220 9.465110 0.665243 4.457000 8.027950 1.899590 6.268340 6.796100 0.633198 4.477390 5.605580 1.824050 9.618440 14.632700 0.530028 8.087350 13.220300 1.813500 9.873630 12.125100 0.742471 8.052760 10.804300 1.871120 9.853030 9.536040 0.752247 8.139140 8.142930 1.899590 9.850250 6.796100 0.633198 8.059300 5.605580 1.867140 13.195400 14.602500 0.529754 11.593200 13.511800 1.790910 13.417000 12.116700 0.632411 11.689300 10.770700 2.041430 13.456800 9.434070 0.695141 11.982200 8.149690 1.899590 13.432200 6.796100 0.633198 11.641200 5.605580 4.247460 2.831700 14.673700 3.153510 1.012740 13.471000 4.237110 2.683230 12.145700 3.162330 0.962266 10.762900 4.412910 2.722880 9.386720 3.205530 0.839635 8.151620 4.432390 2.686430 6.796100 3.165990 0.895477 5.605580 4.421030 6.418710 14.446300 3.014120 4.568700 13.581500 4.374860 6.341310 12.002400 3.039120 4.491940 10.851800 4.365780 6.274540 9.328500 3.117050 4.493750 8.181920 4.432390 6.268340 6.796100 3.165990 4.477390 5.605580 4.312120 9.587010 14.705600 3.137880 8.055570 13.231800 4.431410 9.838730 11.996700 3.210290 8.113710 10.652800 4.498230 9.852240 9.274380 2.954570 7.977240 8.176280 4.432390 9.850250 6.796100 3.165990 8.059300 5.605580 4.463630 13.456100 14.590300 3.097420 11.557000 13.402200 4.439310 13.430000 12.092600 3.257090 11.607900 10.661600 4.515630 13.477000 9.629110 3.150540 11.631600 8.112400 4.432390 13.432200 6.796100 3.165990 11.641200 5.605580 6.733440 2.657520 14.552100 5.706950 0.765686 13.552000 6.806440 2.702180 12.084300 5.675290 0.850673 10.872300 6.991170 2.474680 9.517510 5.588020 0.899875 8.123790 6.965180 2.686430 6.796100 5.698780 0.895477 5.605580 6.849210 6.566380 14.440300 5.560910 4.531650 13.340000 6.918980 6.436220 12.027000 5.592660 4.507550 10.830600 6.804950 6.213780 9.623500 5.703730 4.431270 8.163630 6.965180 6.268340 6.796100 5.698780 4.477390 5.605580 6.744490 9.590890 14.829600 5.511800 8.090880 13.162800 6.926990 9.788950 11.925100 5.584960 7.940890 10.639500 6.941800 9.980110 9.351800 5.699780 7.983390 8.140770 6.965180 9.850250 6.796100 5.698780 8.059300 5.605580 6.999440 13.290300 14.530300 5.588020 11.454600 13.498800 7.036380 13.280400 12.199800 5.615560 11.533800 10.730800 7.114930 13.614300 9.583170 5.758820 11.584700 8.155950 6.965180 13.432200 6.796100 5.698780 11.641200 5.605580 9.442830 2.931670 14.840600 8.237770 1.034470 13.604700 9.359590 2.716830 12.200300 8.284370 0.836397 10.932100 9.472820 2.738940 9.228840 8.389230 0.890582 8.151260 9.497970 2.686430 6.796100 8.231580 0.895477 5.605580 9.464460 6.581190 14.603700 8.214420 4.412200 13.513700 9.344770 6.316360 11.699000 8.040310 4.371710 10.716300 9.344980 6.182910 9.285500 8.149490 4.406270 8.029810 9.497970 6.268340 6.796100 8.231580 4.477390 5.605580 9.368050 9.380700 14.916900 8.132310 8.290930 13.295500 9.384350 9.896450 11.864300 8.220420 8.128400 10.580600 9.376160 9.897410 9.315090 8.145610 8.061480 8.095600 9.497970 9.850250 6.796100 8.231580 8.059300 5.605580 9.418590 13.524300 14.708000 8.201420 11.298400 13.534100 9.683890 13.664200 12.301000 8.162190 11.592200 10.674400 9.519110 13.477700 9.498250 8.217200 11.670700 8.220300 9.497970 13.432200 6.796100 8.231580 11.641200 5.605580 
1.986270 2.715730 14.581800 0.694772 1.067020 13.436600 1.863220 2.668720 11.998500 0.532417 1.015000 10.645600 1.921290 2.611450 9.199650 0.701995 0.888948 8.077230 1.899590 2.686430 6.796100 0.633198 0.895478 5.605580 1.943180 6.044980 14.721900 0.680069 4.336830 13.325700 2.010250 6.222710 12.217000 0.662406 4.587030 10.689700 1.997110 6.311540 9.530410 0.811952 4.557840 8.072330 1.899590 6.268340 6.796100 0.633198 4.477390 5.605580 1.907430 10.012400 14.799300 0.724921 7.934970 13.642800 2.024830 9.677950 12.169100 0.581837 8.083040 10.829800 1.882490 9.804830 9.531440 0.648227 7.997160 8.172510 1.899590 9.850250 6.796100 0.633198 8.059300 5.605580 1.823070 13.593500 14.536300 0.681316 11.679700 13.415400 2.045960 13.481100 12.111900 0.667095 11.511400 10.704800 1.939940 13.414600 9.607090 0.428240 11.467300 8.131720 1.899590 13.432200 6.796100 0.633198 11.641200 5.605580 4.362220 2.450250 14.935700 3.150580 0.943794 13.448200 4.553220 2.784720 11.901500 3.029030 1.037930 10.802700 4.480560 2.642590 9.422060 3.209420 0.757658 8.066410 4.432390 2.686430 6.796100 3.165990 0.895477 5.605580 4.483800 6.217850 14.762700 3.379140 4.313320 13.415300 4.355540 6.242860 12.173800 3.200720 4.471360 10.652500 4.468230 6.299570 9.419210 3.222110 4.475840 8.083990 4.432390 6.268340 6.796100 3.165990 4.477390 5.605580 4.516090 9.706530 14.703700 3.175930 7.988170 13.590100 4.373530 9.811440 12.086500 3.222250 8.075340 10.806400 4.371650 9.802610 9.435090 3.058850 8.056250 8.193790 4.432390 9.850250 6.796100 3.165990 8.059300 5.605580 4.427150 13.718500 14.857200 3.262310 11.686500 13.660800 4.398380 13.601100 12.229300 3.190800 11.684200 10.868400 4.421930 13.421400 9.388700 3.036550 11.834600 8.162600 4.432390 13.432200 6.796100 3.165990 11.641200 5.605580 6.784440 2.347120 15.043900 5.715620 0.926518 13.363800 6.938830 2.682600 12.037000 5.811580 0.895169 10.805900 7.027620 2.798690 9.369360 5.748840 0.919464 8.063100 6.965180 2.686430 6.796100 5.698780 0.895477 5.605580 6.897080 6.064130 14.717800 5.809340 4.308880 13.463800 6.953790 6.349630 12.209400 5.766060 4.630120 10.843800 7.030400 6.321060 9.420090 5.813040 4.601090 8.049440 6.965180 6.268340 6.796100 5.698780 4.477390 5.605580 7.084510 10.108000 14.777900 5.940000 8.152220 13.746400 7.151550 10.008300 12.149800 5.683410 8.017820 10.921200 6.848730 9.746510 9.558110 5.731900 7.850340 7.993650 6.965180 9.850250 6.796100 5.698780 8.059300 5.605580 7.157090 13.758900 14.847800 5.743210 11.694500 13.541900 7.053380 13.409100 12.077600 5.624160 11.436400 10.809100 6.764500 13.445200 9.450760 5.625050 11.549100 8.235630 6.965180 13.432200 6.796100 5.698780 11.641200 5.605580 9.329360 2.785820 14.664300 8.323470 1.003390 13.566700 9.420000 2.647110 12.152200 8.399580 0.749678 10.754100 9.520700 2.680190 9.476630 8.258950 0.834834 8.130170 9.497970 2.686430 6.796100 8.231580 0.895477 5.605580 9.512160 6.010400 14.788300 8.148230 4.508150 13.294600 9.671350 6.412680 12.196200 8.240530 4.522180 10.923600 9.326150 6.393710 9.633270 8.462640 4.556880 8.183880 9.497970 6.268340 6.796100 8.231580 4.477390 5.605580 9.649100 9.847050 14.566600 8.419070 8.017740 13.551100 9.536770 9.777530 12.278000 8.163290 8.100880 11.040300 9.387800 9.824780 9.474010 8.151230 8.205750 8.095860 9.497970 9.850250 6.796100 8.231580 8.059300 5.605580 9.596300 13.553200 14.495700 8.168680 11.769500 13.520000 9.642840 13.394400 12.022200 8.420210 11.699000 10.857500 9.497000 13.330700 9.341840 8.127070 11.621100 8.210580 9.497970 13.432200 6.796100 8.231580 11.641200 5.605580 
1.941840 2.487640 14.608700 0.736998 0.555817 13.619500 2.255820 2.661450 12.227600 0.837507 0.728940 10.877900 1.841160 2.444150 9.403740 0.574385 0.837093 8.132170 1.899590 2.686430 6.796100 0.633198 0.895478 5.605580 1.950360 6.142760 14.730000 0.840850 4.377610 13.367900 2.007620 6.349300 12.259700 0.700697 4.434810 10.785100 1.965480 6.333210 9.584910 0.661670 4.525430 8.257500 1.899590 6.268340 6.796100 0.633198 4.477390 5.605580 2.249850 9.896480 14.510600 0.803030 8.130260 13.401100 1.958840 9.956580 12.167300 0.730398 8.149750 10.995500 2.136360 9.863230 9.499830 0.727561 7.994060 8.291540 1.899590 9.850250 6.796100 0.633198 8.059300 5.605580 2.014800 13.363400 15.002400 0.845752 11.820900 13.434400 2.068150 13.364500 11.886400 0.658882 11.582400 10.786700 2.034880 13.570400 9.367330 0.736951 11.710800 8.179710 1.899590 13.432200 6.796100 0.633198 11.641200 5.605580 4.492300 2.563370 14.703200 3.151470 0.739197 13.617000 4.614930 2.758070 12.167800 3.236850 0.994917 10.707900 4.376030 2.788230 9.400180 3.101610 0.940602 8.033600 4.432390 2.686430 6.796100 3.165990 0.895477 5.605580 4.441330 6.127960 14.724900 3.253740 4.378500 13.534300 4.484440 6.430770 12.147900 3.102680 4.418830 10.801600 4.395030 6.370660 9.439630 3.074840 4.710130 8.082820 4.432390 6.268340 6.796100 3.165990 4.477390 5.605580 4.586340 10.017200 14.802000 3.408210 7.980980 13.807900 4.369930 9.918760 12.330400 3.379740 7.980850 10.799900 4.502040 9.857350 9.458770 3.138360 8.003390 8.176310 4.432390 9.850250 6.796100 3.165990 8.059300 5.605580 4.504320 13.588700 15.038100 3.362210 11.859600 13.698500 4.569130 13.428600 11.915100 3.253710 11.641500 10.708500 4.411980 13.637400 9.297300 3.290420 11.659400 8.159900 4.432390 13.432200 6.796100 3.165990 11.641200 5.605580 6.967500 2.945870 14.824800 5.755400 0.804409 13.397700 7.165110 2.625470 12.143700 5.738710 0.893073 10.792000 6.946230 2.836230 9.487830 5.742850 0.868582 8.049230 6.965180 2.686430 6.796100 5.698780 0.895477 5.605580 7.167730 6.337240 14.740200 5.686400 4.435040 13.486500 7.025670 6.255210 11.963000 5.617260 4.515100 10.785200 6.977240 6.373400 9.396960 5.516620 4.614850 8.266430 6.965180 6.268340 6.796100 5.698780 4.477390 5.605580 6.945140 9.982230 14.924300 5.843630 8.113700 13.778100 6.895150 9.763130 12.271000 5.749280 8.238650 10.885400 7.071760 9.842960 9.402490 5.659930 8.124570 8.068000 6.965180 9.850250 6.796100 5.698780 8.059300 5.605580 7.048490 13.614800 14.868600 5.772770 11.726500 13.525700 7.043010 13.472800 12.033400 5.765180 11.596600 10.702400 7.013780 13.546700 9.445590 5.812200 11.659200 8.204160 6.965180 13.432200 6.796100 5.698780 11.641200 5.605580 9.665250 2.771240 14.659300 8.248730 0.869064 13.623100 9.545050 2.796720 12.249400 8.318750 0.947422 10.816700 9.580250 2.677570 9.493100 8.216090 0.974682 8.190050 9.497970 2.686430 6.796100 8.231580 0.895477 5.605580 9.639010 6.221550 14.653600 8.245660 4.631120 13.377400 9.641410 6.256490 12.227700 8.240420 4.624780 10.807100 9.487850 6.392570 9.572970 8.278260 4.528120 8.088070 9.497970 6.268340 6.796100 8.231580 4.477390 5.605580 9.851940 9.979200 14.576600 8.444370 8.149670 13.594300 9.487030 9.977920 12.139500 8.251230 8.133380 10.844100 9.666370 9.667600 9.465260 8.365690 8.114300 8.126360 9.497970 9.850250 6.796100 8.231580 8.059300 5.605580 9.611400 13.290500 15.171500 8.213280 11.788000 13.655700 9.518530 13.467400 12.202800 8.181060 11.718400 10.887800 9.445030 13.520100 9.542060 8.550500 11.623100 8.307570 9.497970 13.432200 6.796100 8.231580 11.641200 5.605580 
1.732840 2.366680 14.706400 0.761704 0.809702 13.178700 2.030030 2.594390 12.056000 0.485833 0.722532 10.654000 1.930850 2.511240 9.351170 0.462057 0.790237 8.136790 1.899590 2.686430 6.796100 0.633198 0.895478 5.605580 1.818510 6.275300 14.728100 0.642832 4.374340 13.439500 1.866390 6.077570 12.149300 0.647184 4.329710 10.565700 1.907920 6.059380 9.555760 0.573957 4.329510 8.121250 1.899590 6.268340 6.796100 0.633198 4.477390 5.605580 1.933520 9.612700 14.615600 0.392702 8.102100 13.162700 1.888910 9.708680 12.126500 0.595690 7.988630 10.805900 1.985040 10.054400 9.375640 0.676443 8.096900 8.124160 1.899590 9.850250 6.796100 0.633198 8.059300 5.605580 1.873750 13.601500 14.855500 0.762273 11.554100 13.647200 1.904880 13.387600 12.113100 0.638264 11.766300 10.866400 2.082410 13.461900 9.427680 0.554607 11.663500 8.049190 1.899590 13.432200 6.796100 0.633198 11.641200 5.605580 4.176660 2.537270 14.673000 3.251810 0.721306 13.351300 4.353200 2.720300 12.155400 3.347370 0.890369 10.659800 4.453690 2.861990 9.495380 3.201800 0.732688 8.160940 4.432390 2.686430 6.796100 3.165990 0.895477 5.605580 4.436360 6.339650 15.111200 3.192630 4.575670 13.699200 4.539530 6.191280 12.032800 3.227060 4.352390 10.690000 4.408490 6.315250 9.450880 3.216840 4.525700 8.187150 4.432390 6.268340 6.796100 3.165990 4.477390 5.605580 4.432350 9.671730 14.869800 3.193560 7.700080 13.312100 4.420970 9.643680 12.024400 3.152190 8.002010 10.690500 4.354680 9.992820 9.379910 3.128850 8.053960 8.252560 4.432390 9.850250 6.796100 3.165990 8.059300 5.605580 4.406230 13.377200 14.751200 3.238340 11.609100 13.409200 4.312730 13.505200 12.005300 3.266210 11.540200 11.012200 4.484780 13.369700 9.464260 3.140190 11.813600 8.218170 4.432390 13.432200 6.796100 3.165990 11.641200 5.605580 6.979140 2.747980 14.707000 5.716470 1.069610 13.526100 6.826250 2.605290 12.240900 5.820550 0.945034 10.776000 6.993690 2.539920 9.367630 5.778830 0.850884 8.238460 6.965180 2.686430 6.796100 5.698780 0.895477 5.605580 7.142380 5.758510 14.906000 5.602000 4.375760 13.909300 6.973180 6.083120 12.310700 5.786930 4.330050 10.652100 6.905690 6.328070 9.441410 5.771270 4.408000 8.199680 6.965180 6.268340 6.796100 5.698780 4.477390 5.605580 6.756080 9.642800 14.692000 5.565450 7.774260 13.511800 6.950790 9.727900 12.054000 5.733560 7.875990 10.769800 6.833310 10.011200 9.564190 5.657010 8.121790 8.262500 6.965180 9.850250 6.796100 5.698780 8.059300 5.605580 6.960850 13.111100 14.761000 5.646600 11.495500 13.563500 6.950090 13.308200 12.278400 5.754460 11.730300 10.746900 6.905760 13.383800 9.662620 5.760680 11.574900 8.195060 6.965180 13.432200 6.796100 5.698780 11.641200 5.605580 9.324640 2.558150 14.352700 8.222950 0.957484 13.218300 9.348280 2.780210 11.907900 8.122990 0.868919 10.655500 9.390990 2.632240 9.264180 8.320430 0.684566 7.975710 9.497970 2.686430 6.796100 8.231580 0.895477 5.605580 9.355980 6.137230 14.333900 8.176610 4.413880 13.277800 9.323800 6.192620 11.858700 8.242180 4.423130 10.602600 9.582990 6.323090 9.405200 8.217070 4.460800 8.107710 9.497970 6.268340 6.796100 8.231580 4.477390 5.605580 9.580810 9.901350 14.864900 8.215730 8.058910 13.459800 9.438020 9.761040 11.990800 8.192140 7.998360 10.748900 9.578340 9.858770 9.435580 8.176450 7.931310 8.192100 9.497970 9.850250 6.796100 8.231580 8.059300 5.605580 9.437030 13.318000 14.435200 8.144710 11.449400 13.409800 9.584100 13.406500 12.181500 8.454520 11.674900 10.939100 9.563860 13.323200 9.317350 8.245010 11.555500 8.169890 9.497970 13.432200 6.796100 8.231580 11.641200 5.605580 
1.847640 2.509570 14.672400 0.755615 0.763656 13.291000 1.995490 2.629900 11.930000 0.719480 0.935791 10.639300 1.944880 2.787160 9.359610 0.721587 0.928017 8.118150 1.899590 2.686430 6.796100 0.633198 0.895478 5.605580 2.020080 6.156710 14.372300 0.679148 4.119930 13.558800 1.841650 6.286500 11.967000 0.585500 4.623730 10.700400 1.870750 6.369030 9.409250 0.687760 4.411870 8.059600 1.899590 6.268340 6.796100 0.633198 4.477390 5.605580 1.746800 9.906010 14.627200 0.621452 7.918230 13.595300 1.683760 9.873400 12.103000 0.441417 8.002930 10.640000 1.835650 10.073300 9.391110 0.652675 7.929910 8.286870 1.899590 9.850250 6.796100 0.633198 8.059300 5.605580 1.870040 13.776300 14.965900 0.587277 11.779800 13.547900 1.830120 13.269900 11.941000 0.482213 11.723200 10.647700 1.943290 13.360900 9.321970 0.575582 11.787300 8.079310 1.899590 13.432200 6.796100 0.633198 11.641200 5.605580 4.521260 2.580850 14.734800 3.119820 0.615052 13.441500 4.568580 2.596020 12.128400 3.228180 0.841945 10.738200 4.377120 2.755150 9.642070 3.124630 0.957488 8.109370 4.432390 2.686430 6.796100 3.165990 0.895477 5.605580 4.458320 6.280100 14.772200 3.283760 4.316120 13.467200 4.292670 6.346680 12.284600 3.252590 4.462640 10.859100 4.361770 6.188000 9.511530 3.271780 4.592230 8.067300 4.432390 6.268340 6.796100 3.165990 4.477390 5.605580 4.501860 9.985050 14.746200 3.062060 8.191680 13.471000 4.331780 9.993570 12.151800 3.033350 8.099350 10.856200 4.453480 9.866270 9.639770 3.136010 8.078640 8.074350 4.432390 9.850250 6.796100 3.165990 8.059300 5.605580 4.558500 13.342200 14.778600 3.063140 11.700400 13.657200 4.494590 13.465100 12.113000 3.045890 11.639100 10.751800 4.452940 13.307200 9.603540 3.282240 11.597600 8.099660 4.432390 13.432200 6.796100 3.165990 11.641200 5.605580 7.150810 2.678500 14.582300 5.627260 0.976164 13.365900 7.068080 2.583090 12.152100 5.655900 0.921586 10.713900 6.992650 2.723240 9.371870 5.769390 0.820760 8.283530 6.965180 2.686430 6.796100 5.698780 0.895477 5.605580 7.020080 6.211310 14.802100 5.732270 4.436210 13.518300 6.740410 6.119890 12.306900 5.765660 4.469100 10.902200 7.026200 6.125500 9.593320 5.687150 4.542860 8.088770 6.965180 6.268340 6.796100 5.698780 4.477390 5.605580 6.782460 9.849950 14.443400 5.585810 8.022940 13.507500 6.754010 9.814640 12.084900 5.632310 7.918340 10.823000 7.033970 9.766520 9.503840 5.675330 8.128900 8.250930 6.965180 9.850250 6.796100 5.698780 8.059300 5.605580 7.017280 13.695700 14.674700 5.707610 11.740200 13.474100 6.918910 13.473600 12.102300 5.581040 11.755600 10.981300 7.042260 13.451100 9.554400 5.710310 11.642600 8.062750 6.965180 13.432200 6.796100 5.698780 11.641200 5.605580 9.398270 2.987280 15.064700 8.326220 0.952385 13.407700 9.471080 2.621530 12.111000 8.467980 0.957170 10.878900 9.535350 2.638370 9.391920 8.251170 0.869044 8.189750 9.497970 2.686430 6.796100 8.231580 0.895477 5.605580 9.665390 6.242300 14.815000 8.293590 4.460400 13.516400 9.518250 6.179980 12.294400 8.147280 4.619460 10.994700 9.464860 6.242120 9.572920 8.377890 4.499000 8.212450 9.497970 6.268340 6.796100 8.231580 4.477390 5.605580 9.482210 9.947230 14.621100 8.206060 7.961100 13.531700 9.227460 9.783590 12.270600 8.027960 7.924020 10.884300 9.457900 9.836320 9.454730 8.135100 8.078890 8.069870 9.497970 9.850250 6.796100 8.231580 8.059300 5.605580 9.541430 13.717000 14.804500 8.014250 11.743500 13.762800 9.278780 13.537800 12.264800 8.038180 11.664100 10.823300 9.555830 13.392500 9.354760 8.277770 11.745200 8.213160 9.497970 13.432200 6.796100 8.231580 11.641200 5.605580 
1.955950 2.862660 14.744400 0.766914 0.969850 13.633800 2.129520 2.570420 12.166300 0.641663 0.734911 10.778600 2.057420 2.642990 9.460510 0.665217 0.884188 8.037480 1.899590 2.686430 6.796100 0.633198 0.895478 5.605580 2.065330 6.108490 14.810000 0.920705 4.480130 13.298100 1.959230 6.050000 11.878300 0.619703 4.454300 10.827900 1.871180 6.235320 9.423120 0.633723 4.395340 8.243380 1.899590 6.268340 6.796100 0.633198 4.477390 5.605580 1.989040 9.838620 14.777700 0.841997 7.955660 13.670300 2.029530 9.594440 12.265500 0.772812 8.138560 10.760800 1.982000 9.764320 9.605370 0.502614 8.100310 8.127240 1.899590 9.850250 6.796100 0.633198 8.059300 5.605580 2.057360 13.323300 14.791100 0.705150 11.601200 13.601100 2.112180 13.468000 12.358700 0.898392 11.499700 11.042000 1.777210 13.333000 9.624980 0.785253 11.408900 8.088080 1.899590 13.432200 6.796100 0.633198 11.641200 5.605580 4.594870 2.687700 14.684500 3.261840 0.869366 13.735200 4.510500 2.575320 12.029500 3.086750 0.857463 10.782400 4.511660 2.578580 9.466610 3.116390 0.833793 8.163200 4.432390 2.686430 6.796100 3.165990 0.895477 5.605580 4.635240 6.195610 14.560300 3.232440 4.514080 13.402000 4.461380 6.328340 12.143100 3.346740 4.271170 10.870200 4.509060 6.414690 9.481720 3.178270 4.566130 8.312460 4.432390 6.268340 6.796100 3.165990 4.477390 5.605580 4.494950 10.034500 14.533500 3.476290 8.037390 13.888300 4.469760 9.854290 12.035700 3.207920 8.089300 10.791600 4.670170 9.971400 9.568310 3.063510 8.044430 8.222090 4.432390 9.850250 6.796100 3.165990 8.059300 5.605580 4.707810 13.359800 14.601300 3.436650 11.679000 13.334900 4.583100 13.635500 12.221100 3.331290 11.685000 10.653100 4.503640 13.530400 9.368540 3.215560 11.566200 8.109370 4.432390 13.432200 6.796100 3.165990 11.641200 5.605580 7.016520 3.442740 14.658100 6.018000 1.118730 13.488600 7.157900 2.768500 12.258800 5.829320 0.868346 10.887000 7.106760 2.654490 9.245780 5.738260 0.960825 8.275010 6.965180 2.686430 6.796100 5.698780 0.895477 5.605580 7.228790 5.846420 14.673800 5.662590 4.436310 13.115300 7.035680 6.351570 12.132700 5.883740 4.568190 10.645800 6.805280 6.300900 9.420300 5.720640 4.515870 8.126060 6.965180 6.268340 6.796100 5.698780 4.477390 5.605580 7.120780 9.871630 14.693300 5.980620 8.034750 13.603700 6.965590 9.740980 12.109800 5.704680 8.122720 10.816300 7.125930 9.909310 9.510260 5.677250 8.069450 8.128930 6.965180 9.850250 6.796100 5.698780 8.059300 5.605580 7.280960 13.597500 14.776600 6.039080 11.696900 13.408900 7.281680 13.482600 12.084100 5.872350 11.756200 10.800500 7.098380 13.421600 9.608420 5.794390 11.534100 8.045160 6.965180 13.432200 6.796100 5.698780 11.641200 5.605580 9.674980 3.077950 14.752200 8.347040 1.147330 13.587900 9.707450 2.770060 12.117900 8.316590 0.838643 10.987900 9.525570 2.454610 9.404850 8.343220 0.800931 8.118550 9.497970 2.686430 6.796100 8.231580 0.895477 5.605580 9.751840 5.747640 14.942400 8.462190 4.549120 13.052000 9.659570 6.352440 12.109700 8.313920 4.490050 10.584400 9.443440 6.275320 9.466000 8.215410 4.536090 8.160830 9.497970 6.268340 6.796100 8.231580 4.477390 5.605580 9.482670 9.863040 14.915600 8.197840 8.022970 13.683100 9.678550 9.713280 12.494100 8.374890 8.092360 10.897400 9.577790 9.949190 9.640040 8.020740 8.040960 8.238830 9.497970 9.850250 6.796100 8.231580 8.059300 5.605580 9.814070 13.516600 14.752700 8.477660 11.744600 13.987400 9.746950 13.386600 12.108100 8.410920 11.556200 11.076600 9.566500 13.281800 9.533490 8.289720 11.755700 8.112380 9.497970 13.432200 6.796100 8.231580 11.641200 5.605580 