-200377.9808638516
-200376.5385086336
-200377.5561269293
-200376.4642327105
-200378.4456295368
-200376.9956456072
-200377.9859303393
-200377.9391245810
-200377.6441688196
-200379.1486077638
-200377.4123029252
-200378.0846242621
-200376.9220649350
-200376.8238434018
-200377.0733060822
-200378.5117966033
-200376.9072839831
-200377.4017823237
-200376.8255232967
-200377.9506911882
-200377.0996379947
-200376.7519250732
-200378.7077042858
-200377.4835357991
-200376.8382296526
-200377.6013295288
-200378.4399811337
-200377.6054894692
-200378.2211277234
-200378.6202576445
-200378.2902398781
-200377.0747662451
-200377.3602648259
-200377.6737730372
-200378.0835415211
-200377.7767893524
-200378.0414695914
-200377.6690836993
-200377.4092273585
-200377.7187164483
-200377.2224039247
-200378.0065697662
-200377.7015466089
-200377.8443924997
-200378.4796339714
-200377.6900221794
-200377.3893235913
-200377.0123812890
-200376.8546311786
-200377.9924296424
-200377.7796582486
-200377.7605328631
-200377.5650285895
-200377.0076926313
-200376.4547726727
-200377.8272047008
-200376.8481722844
-200377.1517948718
-200376.5544807639
-200378.1375123090
-200377.2752711549
-200376.9907177615
-200377.9739302548
-200377.4374359042
-200376.1041137106
-200377.5973785718
-200377.0911557980
-200377.4242925333
-200376.3284990593
-200377.1954880558
-200377.1665807218
-200377.4660616004
-200378.2395796272
-200376.5578376963
-200378.4648962855
-200377.6460015063
-200377.8517769892
-200378.0947624076
-200377.4906182422
-200376.6518863637
-200377.0091616379
-200375.9522230277
-200376.3582283132
-200376.8934297148
-200377.5914942460
-200378.0782487708
-200378.0054468885
-200376.6635954225
-200377.7104354797
-200378.1687322026
-200376.7630916730
-200376.9027798187
-200377.4461349756
-200377.4302880177
-200377.2679329248
-200376.1318110904
-200376.7713552262
-200376.3144254673
-200377.4853774656
-200378.3580853427
-200376.6937023704
-200377.0734644525
-200378.4578737075
-200378.0309353842
-200376.8403920053
-200377.2032867025
-200377.5322894843
-200377.2570505479
-200377.9852908717
-200377.5860448941
-200377.0784045433
-200377.6921897022
-200376.3191474589
-200378.4800615983
-200376.6114107898
-200377.3659378554
-200377.1821629129
-200376.7961265659
-200377.0043222292
-200377.5512237099
-200376.8685638156
-200376.9683641534
-200377.9806585417
-200377.2153541352
-200376.9287405679
-200378.1717702176
-200376.9568902010
-200377.2291844575
-200377.0932411425
-200377.6981605602
-200377.2981450447
-200376.9850255481
-200377.2644936779
-200377.1630416091
-200377.1465989940
-200377.5081450950
-200377.1924314010
-200377.4456491164
-200378.2608975701
-200377.9159504136
-200377.8224488311
-200377.5815435869
-200377.3977953116
-200378.2909343126
-200377.2884520774
-200377.5957517392
-200377.4102574454
-200378.0660301789
-200378.0963002590
-200377.5576076368
-200377.5354397463
-200377.6058422648
-200377.3140007103
-200377.0892546746
-200376.9563231157
-200377.0858199176
-200377.4077918219
-200377.3757355865
-200377.5004068575
-200376.9833577623
-200376.6861826403
-200377.1141064239
-200375.7909676828
-200377.3654377101
-200376.7383127141
-200377.0713863190
-200377.1098713801
-200376.7454969278
-200377.0323223357
-200377.4112456269
-200376.2403646503
-200377.5241017148
-200377.2391402867
-200378.2519010782
-200378.2525459880
-200375.5468587063
-200377.5581401635
-200377.3116073330
-200377.7418910239
-200376.9261601123
-200376.2424920363
-200377.4295402488
-200376.7942027210
-200376.4980047598
-200377.5164496014
-200377.1819869913
-200377.1863115606
-200377.8568366740
-200377.8259148812
-200376.8984084458
-200378.1681931450
-200376.6793082283
-200377.6200336821
-200377.8802079879
-200376.9860776762
-200378.5187330574
-200377.7528565316
-200376.8209683830
-200378.0373737338
-200377.9773312696
-200378.4910618005
-200377.1472972381
-200377.0987861424
-200377.4301193071
-200377.3542613142
-200378.3523568021
-200377.0950395429
-200377.9791412349
-200377.8099223423
-200377.3671917559
-200376.5381640014
-200378.3040206756
-200376.1876740219
-200377.4559886261
-200377.0375018867
-200377.8400518757
-200377.7011509553
-200377.9667634564
-200377.3753770765
-200377.0758280333
-200377.4034084760
-200376.1217932192
-200376.8337033110
-200375.5643198436
-200376.3280922491
-200375.2093772653
-200376.6811049960
-200376.6214463484
-200376.6812083992
-200377.6840124091
-200376.3901163823
-200375.1522915902
-200375.5975970539
-200377.0036442576
-200377.0594101805
-200375.9493616145
-200376.8096523927
-200377.0634634523
-200375.9284412300
-200377.1763806298
-200376.1683606057
-200375.8117060232
-200374.5326856440
-200375.7169704044
-200375.3661281736
-200375.3164906626
-200376.0816553386
-200375.6024099314
-200374.8639269703
-200376.2963919386
-200375.4279472690
-200375.6798724436
-200376.3995151945
-200376.2319489854
-200376.0878025264
-200375.6885097452
-200376.8231623009
-200376.7662628877
-200376.1677619553
-200376.2104246442
-200376.5490246092
-200375.2119164957
-200376.7738903749
-200375.0098051618
-200376.3866413524
-200374.7777682439
-200375.4368802223
-200376.9114307260
-200376.1210530696
-200376.6460725153
-200376.7876511720
-200375.5010683409
-200375.7856327549
-200376.3233093040
-200375.1795858334
-200376.6091497959
-200376.7355798748
-200375.6545751079
-200375.9604200491
-200376.1152710585
-200375.8142037562
-200374.6833267802
-200374.8117838351
-200376.5406226860
-200375.3276948141
-200376.4242866702
-200375.1602262939
-200375.5575168614
-200376.8799252489
-200375.5324678296
-200376.0659019879
-200374.7723194362
-200376.9097664777
-200375.9317298619
-200376.2479461501
-200376.0503478244
-200376.8302869216
-200374.9018626336
-200375.3695438826
-200375.1601373127
-200375.7149649254
-200375.8086622938
-200376.3051797191
-200374.4499959609
-200376.7583596132
-200376.3042977982
-200375.6261041084
-200374.6966470250
-200375.8209584382
-200375.6718301190
-200375.9198247451
-200375.4407564841
-200375.8681178083
-200374.4568107800
-200375.7865918201
-200375.3954443587
-200374.3128386100
-200376.1014465867
-200374.4286641403
-200375.6004150648
-200375.4796552942
-200375.3599212568
-200375.8264130962
-200375.8093531908
-200375.5592635602
-200375.0305984691
-200376.0066063402
-200376.3911105502
-200374.8282721653
-200375.4327997392
-200376.2321009610
-200375.6519819990
-200375.9421348150
-200376.1884666896
-200375.1014282063
-200375.5407096137
-200375.6928162189
-200375.4985280221
-200376.2579086462
-200376.0656959977
-200375.5414941179
-200376.2934188227
-200377.0702041204
-200377.7285647925
-200375.7208903404
-200374.8478308922
-200374.2855447750
-200375.6887483891
-200375.0148155940
-200376.2875996681
-200375.0144366755
-200376.3741645245
-200373.9350279924
-200374.7326810206
-200375.5277288309
-200376.8971394429
-200375.4322801378
-200374.9907380086
-200376.1019523103
-200375.5689463232
-200375.6559755418
-200375.4327794667
-200377.2935177488
-200376.3123447488
-200377.2075610668
-200375.0377794174
-200376.5955558045
-200376.0303368444
-200375.1289838149
-200377.2190381485
-200375.2938311985
-200376.0786328341
-200377.0707984171
-200374.1018282010
-200375.4617096583
-200374.7381042495
-200374.3853233437
-200376.1751097094
-200375.5581478934
-200375.7550188589
-200375.3433104753
-200374.1434818918
-200376.5627122077
-200376.1925609145
-200375.5484741101
-200374.9343979254
-200374.4682157516
-200374.8231599625
-200375.1534491625
-200375.4784001691
-200374.8632828769
-200375.9673057539
-200375.6118586765
-200375.2101232654
-200375.5215839561
-200375.6487544567
-200376.3498881599
-200376.7334519445
-200377.0852148725
-200375.7444522701
-200375.6164676048
-200375.6373154710
-200376.5099683811
-200374.0034168684
-200374.9425875998
-200376.9321547803
-200375.0327749717
-200375.5560833657
-200376.3996799594
-200375.4637686077
-200376.3956246468
-200376.0233866486
-200375.6087545379
-200375.0278433165
-200375.0144055185
-200375.0663113704
-200375.0415450649
-200375.8258068266
-200376.2358340908
-200376.0196328381
-200375.6699272268
-200375.0468284273
-200375.2935954119
-200375.6002829536
-200376.9913206297
-200376.3803123926
-200376.3502413637
-200374.7433593121
-200376.4546480446
-200375.8801783021
-200375.6117556814
-200374.6255827256
-200375.8512657979
-200375.8554500925
-200375.1826239844
-200375.9684898573
-200377.1081061776
-200374.8582193824
-200376.1160020923
-200376.5710886882
-200374.9629969545
-200375.6802981657
-200373.7603351217
-200375.9264005122
-200376.0579785769
-200376.0686088403
-200375.7703675763
-200374.7314405896
-200376.5763406214
-200374.6168960354
-200375.4664901543
-200375.7731318448
-200376.1909602048
-200374.7155177119
-200376.1076950009
-200375.0620236726
-200375.6073713832
-200376.1552502967
-200374.7908725664
-200376.6938606046
-200375.0774186494
-200377.4916404379
-200374.9563108452
-200374.7933746532
-200375.3365349766
-200374.9899914643
-200374.7224295397
-200374.8252700694
-200374.8287555756
-200376.0751496408
-200373.7963583688
-200375.4288651090
-200374.4941041186
-200376.5072276505
-200375.4093242056
-200377.0116182817
-200375.8004605104
-200375.2119609863
-200375.6509189863
-200375.9573115566
-200375.8686776826
-200376.2599960315
-200374.7650414793
-200375.7790750833
-200376.9887920118
-200376.4811539739
-200375.0134608752
-200376.0313569992
-200374.2150184447
-200374.7369196019
-200377.2951504318
-200376.0926290097
-200375.0502800554
-200375.9973876673
-200374.6809329946
-200375.0090587535
-200377.5942289901
-200375.8200346117
-200375.6839624508
-200374.9069502101
-200376.0934788212
-200374.4388624229
-200376.5164041457
-200376.0212340920
-200376.9959759534
-200375.3013526973
-200376.5254271686
-200374.2315130336
-200377.1347670758
-200375.8532431132
-200375.9218796128
-200375.0241700517
-200375.9013955629
-200375.0002256660
-200375.8169614940
-200375.1346454156
-200375.3989187083
-200375.8051721616
-200374.7315419521
-200376.3878902189
-200376.5466559942
-200375.1081771739
-200375.7792462429
-200375.9063994644
-200376.4066898842
-200376.1370617992
-200375.2029185071
-200376.4841239605
-200376.7276865324
-200375.2936518755
-200375.7309961044
-200375.2355027795
-200375.8910731963
-200375.7888121330
-200375.1861198310
-200377.2155481524
-200375.7924772344
-200375.1413045856
-200376.0147807761
-200376.5397781807
-200375.8228430986
-200375.4177615036
-200375.3802934680
-200374.8941799073
-200374.2202543233
-200376.2328368928
-200375.3298389352
-200374.4391509997
-200375.7509591924
-200376.8454919630
-200376.1606795122
-200375.8961611809
-200376.3987958615
-200374.7769346231
-200374.4932102246
-200376.2249416457
-200375.4135061873
-200375.6030344327
-200376.4451137197
-200375.8066856588
-200376.4571886355
-200375.5260039012
-200375.7774297470
-200375.5750214008
-200376.2865016887
-200374.7827205798
-200376.4489016804
-200376.5239740807
-200376.6316025895
-200375.5923154602
-200373.3193798060
-200373.0215102495
-200374.8725695781
-200374.4152404922
-200372.9200555957
-200375.0683531767
-200374.1847460516
-200374.6669017164
-200375.1063413579
-200375.1662442276
-200374.2722204485
-200374.4930021935
-200375.0987446196
-200374.1973966243
-200374.2598209009
-200371.2578774257
-200374.5926400793
-200374.1117866154
-200373.6185899313
-200372.7926328454
-200373.0905553281
-200374.6490900965
-200374.2756581987
-200373.4165613201
-200375.2966571008
-200374.5647718120
-200373.7321102491
-200375.2794733836
-200374.4363769351
-200374.4822358732
-200372.4703583506
-200372.4856726457
-200373.0074022351
-200373.2745885066
-200374.4670044368
-200373.0109352252
-200374.4281665801
-200373.8863046478
-200374.9429335926
-200374.5546601976
-200374.3299492646
-200374.2858865500
-200373.2231109617
-200372.8826896027
-200374.1065088313
-200372.6050493977
-200372.0558311397
-200373.0261104701
-200373.3664632564
-200373.6109850297
-200374.3135587593
-200374.1972088657
-200372.8890931218
-200373.5944222762
-200371.8560361750
-200373.2662635916
-200373.8397146759
-200373.3745723850
-200374.5444586495
-200373.8943276525
-200373.6289373324
-200373.6634595996
-200373.0165716553
-200374.2900406400
-200372.0353702194
-200375.8876795284
-200374.8071983086
-200374.6221064712
-200373.1514236577
-200373.7333478229
-200372.5912464229
-200373.7847780199
-200374.2346472409
-200375.0593154595
-200373.5151998678
-200373.6678383195
-200374.8614974019
-200372.9586760334
-200373.8648865671
-200374.2502442622
-200373.4812041409
-200373.3077198638
-200375.4918893967
-200375.4749546636
-200371.8028832253
-200375.6533893718
-200374.4584079523
-200374.2379727442
-200374.3285912805
-200374.3771246896
-200375.2087411992
-200373.4714074982
-200374.9654700612
-200373.2413029968
-200372.7543265632
-200375.4783252018
-200373.5248589569
-200374.6945524286
-200373.9404807457
-200373.7907480616
-200374.7653895129
-200374.8194098256
-200373.4226998003
-200374.9352874656
-200374.7743408339
-200372.5412536673
-200374.6242929060
-200373.7926226539
-200373.7170064341
-200373.9795643212
-200373.5197157331
-200374.3480640194
-200374.8573555570
-200373.2420673646
-200373.9530118603
-200373.6805850844
-200374.0399107364
-200372.3074486897
-200373.3994812783
-200372.7993672549
-200373.6968178998
-200375.0078853986
-200374.6152311068
-200373.7503486796
-200373.7067916885
-200373.3622641316
-200371.4541391282
-200373.0717525335
-200373.3025593608
-200374.5343168305
-200374.6934456056
-200372.6241438983
-200374.9073563400
-200374.0316949392
-200373.6251670590
-200373.8153282413
-200375.2011437806
-200372.4496307588
-200374.2097349463
-200373.0942443755
-200374.8741170896
-200374.9151592045
-200373.0564791916
-200374.0115962024
-200372.9794385919
-200372.2694771074
-200372.8428685987
-200373.3336148976
-200373.1034762458
-200373.3281806480
-200373.5496145139
-200374.0924512940
-200373.0629405348
-200372.6585039856
-200372.2591107944
-200374.9215461246
-200373.7987835835
-200372.5150712813
-200373.3600942958
-200373.9408729978
-200374.4543505988
-200373.5475788302
-200375.0212366644
-200375.1421701797
-200373.7336300050
-200374.4887770819
-200372.9682012425
-200373.6060167751
-200373.9976213877
-200373.9382842427
-200373.2245045928
-200373.2065857601
-200374.3373292642
-200374.1391434447
-200373.7820574257
-200373.9313820750
-200375.2053343338
-200375.7127150881
-200374.0296694598
-200374.9170150209
-200374.9487418626
-200374.4055257558
-200373.2754493387
-200373.7655875992
-200374.1178157058
-200373.8289459065
-200374.3130914038
-200373.4815732633
-200374.5372325303
-200375.0373100211
-200374.4007293411
-200374.4307508453
-200374.3491098889
-200375.4348136537
-200374.3354523590
-200372.3979176994
-200374.1458129550
-200374.3250142079
-200373.9700995214
-200375.3009543227
-200373.8479887055
-200374.7753487436
-200374.7296447743
-200375.0238134465
-200372.6191059826
-200374.5370115739
-200373.3656628335
-200374.5377219270
-200373.5335766681
-200375.1398509534
-200374.0024477350
-200375.1099797921
-200374.2142143483
-200374.1842344776
-200374.4479442225
-200374.2304251225
-200373.9671325280
-200372.9087960690
-200372.3717257894
-200373.0503562219
-200373.8652536487
-200373.3726145260
-200372.6530502799
-200373.0712088500
-200372.3444146752
-200373.5034728495
-200374.5518757926
-200373.9501591548
-200374.2080402212
-200371.2376205908
-200374.9585674854
-200372.1468187985
-200373.1619794980
-200374.5108682362
-200375.4703438306
-200373.4806434503
-200374.2508717568
-200372.8271157922
-200373.6816332669
-200371.1491714821
-200374.1877344058
-200374.1119398155
-200373.8086483906
-200376.1980985673
-200375.3057904660
-200373.2913670462
-200374.5721323554
-200373.5555415616
-200373.8233596814
-200374.0737923116
-200373.2789220556
-200373.5288378055
-200373.4982070384
-200372.5870830810
-200372.8560810865
-200374.3536815376
-200374.4411424648
-200372.5740878762
-200374.2326432585
-200375.2177597323
-200373.7954810738
-200373.6738882266
-200374.4999030006
-200373.6905375122
-200374.6560790685
-200374.9611230425
-200374.2533422784
-200373.6891652421
-200373.6246373894
-200374.1114701469
-200374.3971670988
-200374.3595639586
-200373.6997712874
-200374.1670062697
-200373.0547360303
-200373.9300560643
-200373.1681982517
-200373.1879093623
-200373.6809736630
-200373.0987070425
-200373.3526235463
-200372.4477126283
-200374.4344672401
-200373.3166340412
-200374.0717809821
-200373.3443704694
-200373.2036137326
-200375.3406332832
-200372.2910712458
-200371.1985598729
-200373.9750352583
-200373.2017734267
-200373.5559777601
-200374.8150585891
-200374.0082328753
-200374.3122068977
-200374.3992033267
-200373.3585014774
-200374.6863231618
-200375.0359806089
-200373.9355850094
-200374.3331866031
-200373.8820140928
-200376.2746628317
-200375.3024320369
-200374.3598460046
-200374.3961859923
-200373.5887429882
-200373.5828639686
-200373.3939260741
-200375.2725652294
-200373.4111529214
-200374.6175051622
-200374.7420685401
-200373.8229662048
-200374.4518408928
-200374.6628342947
-200373.2819102737
-200375.2492171812
-200373.8761285425
-200374.7163186791
-200373.9883519657
-200373.0822825230
-200374.2054313297
-200374.1884730589
-200373.3342379022
-200375.1526949990
-200373.8486979703
-200374.0078195344
-200373.6797083336
-200374.5733858478
-200373.6751338278
-200374.7081473724
-200374.5489017244
-200376.2607948217
-200374.2946405885
-200373.6207713320
-200373.8908316698
-200372.8836127490
-200373.4902500214
-200375.9880733465
-200374.6097063794
-200375.0035213728
-200372.4094894767
-200373.5264550406
-200374.7062130511
-200373.3468911960
-200374.7497909949
-200375.0999206956
-200373.4312832233
-200373.8087622703
-200374.6691046140
-200373.9355539884
-200374.7500861024
-200372.8944801596
-200374.3535488821
-200374.0367425150
-200375.1203896433
-200374.6956685036
-200375.0158753414
-200374.8277864421
-200373.9491558711
-200374.5111195333
-200375.2257118512
-200373.8960746233
-200373.7747162023
-200374.2589128570
-200375.2930549938
-200374.8298687933
-200374.8906942651
-200374.8023134569
-200373.5691808599
-200374.8885075582
-200375.1326070107
-200373.9507269204
-200374.1004846389
-200372.2691467612
-200373.5727945318
-200373.5086269578
-200375.6905242041
-200374.9139575498
-200372.7897956505
-200373.5505523543
-200374.5933175067
-200374.0958572069
-200374.9348956217
-200375.5052107299
-200375.1676043887
-200374.8475580981
-200373.7111502721
-200374.9425339934
-200373.2087358676
-200375.3362571484
-200374.3699531292
-200374.3695068625
-200373.2760278527
-200373.7030272656
-200373.1358809231
-200373.9343690687
-200373.6045530747
-200373.5009168841
-200375.3738066821
-200374.9358687008
-200374.2179240764
-200372.9776849542
-200376.1099804851
-200373.7007700813
-200374.4499378646
-200373.1302889835
-200375.1753086119
-200372.7642038875
-200373.6974331492
-200374.1770464543
-200375.2368615800
-200374.8617308755
-200375.0330670859
-200374.5828714644
-200373.1921407326
-200374.9460252140
-200375.6520327482
-200374.1560049791
-200375.5242618284
-200374.1039819821
-200374.5281236554
-200373.0475601161
-200374.2278510616
-200374.6959704139
-200374.2064897165
-200374.1177967938
-200375.9955344360
