6.111400000000000166e-02 7.065800000000000303e+00 2.354659999999999975e+00 1.690949999999999953e+00 1.845970000000000111e+00 2.091390000000000082e+00 3.650939999999999852e+00 3.591140000000000221e+00 2.241439999999999877e+00 5.414060000000000095e+00 5.359659999999999869e+00 2.064189999999999969e+00 1.772620000000000084e+00 4.977000000000000174e-02 4.062140000000000306e+00 3.433079999999999909e+00 1.787809999999999899e+00 3.836650000000000116e+00 5.466960000000000264e+00 3.554159999999999986e+00 3.880170000000000119e+00 7.053350000000000009e+00 5.226200000000000401e+00 4.062059999999999782e+00 3.674760000000000026e+00 7.066189999999999749e+00 5.704049999999999621e+00 5.577609999999999957e+00 1.778999999999999915e+00 5.536509999999999820e+00 6.990599999999999592e-02 3.655380000000000074e+00 5.742790000000000283e+00 1.847529999999999895e+00 5.485780000000000101e+00 5.780719999999999636e+00 5.348419999999999952e+00 1.176600000000000042e-02 3.655499999999999861e-01 7.055349999999999788e+00 1.882200000000000095e+00 3.643259999999999832e-01 1.707570000000000032e+00 3.627369999999999983e+00 2.436409999999999965e-01 3.547210000000000196e+00 5.280149999999999899e+00 2.238400000000000112e-01 7.418299999999999894e-02 1.769600000000000062e+00 3.759790000000000187e+00 1.719999999999999973e+00 3.737410000000000121e+00 4.146550000000000402e+00 3.553659999999999819e+00 5.346029999999999838e+00 3.886270000000000113e+00 5.335210000000000008e+00 7.135390000000000121e+00 3.755780000000000118e+00 1.718169999999999975e+00 1.934970000000000079e+00 5.677520000000000344e+00 3.538609999999999811e+00 3.528630000000000155e+00 5.559800000000000075e+00 5.413269999999999804e+00 5.256499999999999950e+00 5.619670000000000165e+00 7.157359999999999722e+00 1.582639999999999880e-01 5.702899999999999636e+00 3.734119999999999884e+00 1.791209999999999969e+00 1.143379999999999952e-01 5.251330000000000275e+00 3.565650000000000208e+00 1.878650000000000042e-01 1.340210000000000012e-01 5.369460000000000122e+00 3.430900000000000061e-01 1.836570000000000036e+00 4.522600000000000231e-02 3.240160000000000262e-01 5.385089999999999932e+00 1.607850000000000001e+00 2.025399999999999867e+00 7.151290000000000369e+00 3.650170000000000137e+00 1.931249999999999911e+00 1.790389999999999926e+00 5.315839999999999677e+00 2.269039999999999946e+00 3.456399999999999917e+00 7.140550000000000175e+00 1.997840000000000060e+00
7.106300000000000061e+00 5.136299999999999893e-02 1.968299999999999939e+00 1.549509999999999943e+00 1.800079999999999902e+00 2.093700000000000117e+00 3.497409999999999908e+00 3.451280000000000125e+00 2.136899999999999800e+00 5.396320000000000228e+00 5.486299999999999955e+00 1.952679999999999971e+00 1.842340000000000089e+00 7.129109999999999836e+00 3.968529999999999891e+00 3.638570000000000082e+00 1.734439999999999982e+00 3.924770000000000092e+00 5.274000000000000021e+00 3.549549999999999983e+00 3.836759999999999948e+00 6.026800000000000213e-02 5.372939999999999827e+00 3.886569999999999858e+00 3.610710000000000086e+00 7.029609999999999914e+00 5.752769999999999939e+00 5.488699999999999690e+00 1.667759999999999909e+00 5.684020000000000294e+00 7.159440000000000026e+00 3.626399999999999846e+00 5.782680000000000042e+00 1.906179999999999986e+00 5.399090000000000167e+00 5.611530000000000129e+00 5.278059999999999974e+00 7.100209999999999688e+00 2.599500000000000144e-01 2.218699999999999839e-02 1.990399999999999947e+00 2.710919999999999996e-01 1.953119999999999967e+00 3.621599999999999930e+00 2.409779999999999978e-01 3.357909999999999950e+00 5.351840000000000153e+00 3.541730000000000156e-01 6.915799999999999725e-02 1.821020000000000083e+00 4.124480000000000146e+00 1.923810000000000020e+00 3.631200000000000205e+00 3.889870000000000161e+00 3.654450000000000198e+00 5.405499999999999972e+00 3.914130000000000109e+00 5.405090000000000394e+00 7.162560000000000038e+00 3.976529999999999898e+00 1.898709999999999898e+00 1.769589999999999996e+00 5.592939999999999579e+00 3.697290000000000187e+00 3.531149999999999789e+00 5.680749999999999744e+00 5.365940000000000154e+00 5.338020000000000209e+00 5.589819999999999567e+00 7.091079999999999828e+00 4.673100000000000170e-02 5.875479999999999592e+00 3.545290000000000052e+00 1.589210000000000012e+00 2.205890000000000073e-01 5.064930000000000376e+00 3.681020000000000181e+00 3.669490000000000252e-01 2.695119999999999738e-01 5.449939999999999785e+00 3.184429999999999761e-01 1.762909999999999977e+00 1.705079999999999929e-01 3.245430000000000259e-01 5.279049999999999798e+00 1.711419999999999941e+00 1.912349999999999994e+00 7.036450000000000315e+00 3.760909999999999975e+00 2.062059999999999782e+00 1.820750000000000091e+00 5.240280000000000271e+00 2.145360000000000156e+00 3.595680000000000209e+00 7.113879999999999981e+00 2.135540000000000216e+00
3.610100000000000114e-02 7.069869999999999877e+00 2.097140000000000004e+00 1.863229999999999942e+00 1.726040000000000019e+00 2.024540000000000006e+00 3.535099999999999909e+00 3.539779999999999927e+00 2.045220000000000038e+00 5.278400000000000425e+00 5.346599999999999575e+00 2.231559999999999988e+00 1.656220000000000026e+00 7.103419999999999845e+00 3.914639999999999898e+00 3.631880000000000219e+00 1.683659999999999934e+00 3.820829999999999949e+00 5.327480000000000437e+00 3.676810000000000134e+00 4.012900000000000134e+00 7.064560000000000173e+00 5.256719999999999615e+00 3.901370000000000005e+00 3.417159999999999975e+00 3.036600000000000063e-02 5.489720000000000155e+00 5.376000000000000334e+00 1.632549999999999946e+00 5.630510000000000126e+00 2.813169999999999837e-01 3.455360000000000209e+00 5.795480000000000409e+00 1.766610000000000014e+00 5.469850000000000101e+00 5.692289999999999850e+00 5.494019999999999904e+00 6.990829999999999878e+00 3.003390000000000226e-01 6.874489999999999768e+00 1.775309999999999944e+00 4.606879999999999864e-01 1.741170000000000107e+00 3.520970000000000155e+00 4.612379999999999813e-01 3.705799999999999983e+00 5.458319999999999617e+00 3.702790000000000248e-01 6.735999999999999800e-03 1.921820000000000084e+00 3.951000000000000068e+00 1.880689999999999973e+00 3.548169999999999824e+00 3.790919999999999845e+00 3.451389999999999958e+00 5.489709999999999646e+00 3.879329999999999945e+00 5.375490000000000101e+00 1.000200000000000047e-02 3.754199999999999982e+00 2.023080000000000211e+00 1.941729999999999956e+00 5.604099999999999859e+00 3.506569999999999965e+00 3.765960000000000196e+00 5.645419999999999661e+00 5.447250000000000369e+00 5.336780000000000079e+00 5.711420000000000385e+00 1.038349999999999967e-01 2.713659999999999961e-01 5.688909999999999911e+00 3.586409999999999876e+00 1.807779999999999943e+00 2.666979999999999906e-01 5.367910000000000181e+00 3.582570000000000032e+00 3.114870000000000139e-01 1.648799999999999988e-01 5.392389999999999795e+00 4.467679999999999985e-01 1.773479999999999945e+00 1.173550000000000010e-01 1.445349999999999968e-01 5.139960000000000306e+00 1.740289999999999893e+00 2.097170000000000201e+00 9.736799999999999622e-02 3.512919999999999821e+00 2.172880000000000145e+00 1.782769999999999966e+00 5.313959999999999795e+00 2.112480000000000135e+00 3.536129999999999995e+00 7.131850000000000023e+00 2.029209999999999958e+00
7.049549999999999983e+00 5.933700000000000085e-02 2.203800000000000203e+00 1.711009999999999920e+00 1.930239999999999956e+00 2.176670000000000105e+00 3.538019999999999943e+00 3.645750000000000046e+00 2.030580000000000052e+00 5.515249999999999986e+00 5.407919999999999838e+00 2.062619999999999898e+00 1.836410000000000098e+00 1.813700000000000034e-02 3.778669999999999973e+00 3.513409999999999922e+00 1.435890000000000111e+00 3.815409999999999968e+00 5.304719999999999658e+00 3.444189999999999863e+00 3.856180000000000163e+00 7.919500000000000151e-02 5.403120000000000367e+00 3.884959999999999969e+00 3.736810000000000187e+00 1.893999999999999850e-02 5.651930000000000121e+00 5.415890000000000093e+00 1.896549999999999958e+00 5.699709999999999610e+00 1.582599999999999979e-02 3.630669999999999842e+00 5.703059999999999796e+00 1.894539999999999891e+00 5.554160000000000430e+00 5.565529999999999866e+00 5.317459999999999631e+00 5.091000000000000039e-03 2.769019999999999815e-01 2.709659999999999846e-01 1.989460000000000006e+00 3.027159999999999851e-01 1.807770000000000099e+00 3.688629999999999853e+00 2.823180000000000134e-01 3.482250000000000068e+00 5.314259999999999984e+00 4.027600000000000069e-01 5.716700000000000254e-02 1.731270000000000087e+00 3.882890000000000175e+00 1.876919999999999922e+00 3.346109999999999918e+00 4.000829999999999664e+00 3.806490000000000151e+00 5.460560000000000080e+00 3.957520000000000149e+00 5.492689999999999628e+00 4.367299999999999655e-02 4.023740000000000094e+00 1.716509999999999980e+00 1.478029999999999955e+00 5.731169999999999654e+00 3.635409999999999808e+00 3.678490000000000038e+00 5.609270000000000422e+00 5.410639999999999894e+00 5.398419999999999774e+00 5.716350000000000264e+00 7.095180000000000042e+00 1.017480000000000051e-01 5.862989999999999924e+00 3.478720000000000034e+00 1.775600000000000067e+00 4.425439999999999929e-01 5.241690000000000182e+00 3.642560000000000020e+00 3.140530000000000266e-01 7.045169999999999710e+00 5.432949999999999946e+00 3.404010000000000091e-01 1.744010000000000060e+00 7.126249999999999751e+00 3.231450000000000156e-01 5.268469999999999764e+00 1.771220000000000017e+00 1.983789999999999942e+00 7.093950000000000422e+00 3.559359999999999857e+00 1.879429999999999934e+00 1.732069999999999999e+00 5.266140000000000043e+00 2.116540000000000088e+00 3.436960000000000015e+00 7.038750000000000284e+00 1.976769999999999916e+00
1.197050000000000058e-01 2.179899999999999893e-02 2.036000000000000032e+00 1.914940000000000087e+00 1.848060000000000036e+00 2.104540000000000077e+00 3.431459999999999955e+00 3.692470000000000141e+00 2.060329999999999995e+00 5.327320000000000277e+00 5.350469999999999615e+00 1.979090000000000016e+00 1.905559999999999921e+00 7.136949999999999683e+00 3.864860000000000184e+00 3.459680000000000089e+00 1.841860000000000053e+00 3.834700000000000220e+00 5.360500000000000043e+00 3.592659999999999965e+00 3.943210000000000104e+00 7.086940000000000239e+00 5.359140000000000015e+00 3.968389999999999862e+00 3.532259999999999955e+00 9.310000000000000220e-02 5.863850000000000229e+00 5.241559999999999775e+00 1.773560000000000025e+00 5.651769999999999960e+00 7.045720000000000205e+00 3.229190000000000005e+00 5.707550000000000345e+00 1.693540000000000045e+00 5.574729999999999741e+00 5.745090000000000252e+00 5.402260000000000062e+00 1.421939999999999871e-01 3.132969999999999922e-01 7.228500000000000203e-02 1.644249999999999989e+00 3.126220000000000110e-01 1.744399999999999951e+00 3.638339999999999907e+00 2.666049999999999809e-01 3.565380000000000216e+00 5.385100000000000442e+00 2.155950000000000089e-01 7.115649999999999586e+00 1.810310000000000086e+00 3.733309999999999906e+00 1.855120000000000102e+00 3.585290000000000088e+00 3.924100000000000144e+00 3.643089999999999939e+00 5.524180000000000312e+00 3.971810000000000063e+00 5.384459999999999802e+00 7.151510000000000034e+00 3.870709999999999873e+00 1.661010000000000097e+00 1.750180000000000069e+00 5.617029999999999745e+00 3.469650000000000123e+00 3.468140000000000001e+00 5.851790000000000269e+00 5.409299999999999997e+00 5.202950000000000408e+00 5.721700000000000230e+00 2.860199999999999895e-02 7.157280000000000086e+00 5.597360000000000113e+00 3.544299999999999784e+00 1.923110000000000097e+00 4.257710000000000106e-01 5.355620000000000047e+00 3.554889999999999883e+00 2.331409999999999871e-01 7.105179999999999829e+00 5.294810000000000016e+00 2.938490000000000268e-01 1.884689999999999976e+00 6.411999999999999644e-02 5.512899999999999467e-01 5.543090000000000295e+00 1.748520000000000074e+00 1.985430000000000028e+00 1.683939999999999881e-01 3.568169999999999842e+00 2.016049999999999898e+00 1.906020000000000048e+00 5.429560000000000386e+00 2.096870000000000012e+00 3.643450000000000077e+00 7.064259999999999984e+00 2.097529999999999895e+00
7.076559999999999739e+00 4.479000000000000342e-03 2.103289999999999882e+00 2.001739999999999853e+00 1.764580000000000037e+00 2.008119999999999905e+00 3.789299999999999891e+00 3.720579999999999998e+00 1.962280000000000024e+00 5.455829999999999735e+00 5.386190000000000033e+00 2.059149999999999814e+00 1.717410000000000103e+00 7.040079999999999671e+00 3.697610000000000063e+00 3.644320000000000004e+00 1.955980000000000052e+00 3.878919999999999924e+00 5.301529999999999632e+00 3.640280000000000182e+00 3.933699999999999974e+00 7.082010000000000360e+00 5.316480000000000317e+00 3.809569999999999901e+00 3.555950000000000166e+00 7.102599999999999802e+00 5.896899999999999586e+00 5.408879999999999910e+00 1.916150000000000020e+00 5.687070000000000292e+00 2.086510000000000031e-01 3.614009999999999945e+00 5.673129999999999562e+00 1.676819999999999977e+00 5.517619999999999969e+00 5.642909999999999648e+00 5.283750000000000391e+00 6.935990000000000322e+00 3.916069999999999829e-01 4.323300000000000060e-02 1.682269999999999932e+00 3.312640000000000029e-01 1.647089999999999943e+00 3.525279999999999969e+00 2.937179999999999791e-01 3.388149999999999995e+00 5.328800000000000203e+00 3.713819999999999899e-01 4.995299999999999740e-02 1.841579999999999995e+00 3.699549999999999894e+00 1.967910000000000048e+00 3.642119999999999802e+00 3.885609999999999786e+00 3.572760000000000158e+00 5.377690000000000303e+00 4.116570000000000285e+00 5.028559999999999697e+00 7.150990000000000180e+00 4.002239999999999576e+00 1.876400000000000068e+00 1.853839999999999932e+00 5.660919999999999952e+00 3.552049999999999930e+00 3.560340000000000060e+00 5.935590000000000366e+00 5.377779999999999561e+00 5.251739999999999853e+00 5.830820000000000114e+00 6.896779999999999688e+00 1.271819999999999895e-01 5.751809999999999867e+00 3.715100000000000069e+00 1.774469999999999992e+00 2.599520000000000164e-01 5.430900000000000283e+00 3.488589999999999858e+00 2.839729999999999754e-01 5.652800000000000186e-02 5.528780000000000250e+00 1.115320000000000061e-01 1.776929999999999898e+00 7.155170000000000030e+00 3.383860000000000201e-01 5.429759999999999920e+00 1.752629999999999910e+00 2.096000000000000085e+00 1.464600000000000068e-01 3.563800000000000079e+00 2.035960000000000214e+00 1.743300000000000072e+00 5.279040000000000177e+00 2.069980000000000153e+00 3.554920000000000080e+00 7.149429999999999730e+00 2.035740000000000105e+00
7.098869999999999791e+00 1.642029999999999879e-01 2.157410000000000050e+00 1.855949999999999989e+00 1.786720000000000086e+00 2.014759999999999884e+00 3.738259999999999916e+00 3.530390000000000139e+00 2.338159999999999794e+00 5.399140000000000050e+00 5.459469999999999601e+00 2.080680000000000085e+00 1.763379999999999947e+00 6.967100000000000293e+00 3.785759999999999792e+00 3.713750000000000107e+00 1.652079999999999993e+00 3.750739999999999963e+00 5.242090000000000138e+00 3.770939999999999959e+00 3.950990000000000002e+00 3.489500000000000240e-02 5.316869999999999763e+00 3.976630000000000109e+00 3.570469999999999811e+00 6.729999999999999871e-04 5.748820000000000263e+00 5.375469999999999970e+00 1.608389999999999986e+00 5.662650000000000183e+00 7.154930000000000234e+00 3.529049999999999798e+00 5.735730000000000217e+00 1.853550000000000031e+00 5.382340000000000124e+00 5.893410000000000259e+00 5.517260000000000275e+00 7.161290000000000155e+00 2.318419999999999925e-01 7.041220000000000034e+00 1.762399999999999967e+00 2.727120000000000100e-01 1.855920000000000014e+00 3.393699999999999939e+00 4.117819999999999814e-01 3.569269999999999943e+00 5.286279999999999646e+00 3.919659999999999811e-01 6.848580000000000112e+00 1.967160000000000020e+00 3.942870000000000097e+00 1.715140000000000109e+00 3.733319999999999972e+00 3.901879999999999793e+00 3.415119999999999933e+00 5.544360000000000177e+00 3.804699999999999971e+00 5.446010000000000240e+00 7.155879999999999797e+00 3.821190000000000087e+00 1.907540000000000013e+00 1.837790000000000035e+00 5.689930000000000376e+00 3.633789999999999853e+00 3.480809999999999960e+00 5.715819999999999901e+00 5.655879999999999797e+00 5.474120000000000097e+00 5.725690000000000168e+00 2.023280000000000078e-01 7.114939999999999820e+00 5.810419999999999696e+00 3.653579999999999828e+00 1.852179999999999938e+00 1.536929999999999963e-01 5.356390000000000207e+00 3.732660000000000089e+00 1.946120000000000072e-01 1.603799999999999948e-01 5.235960000000000392e+00 3.899270000000000236e-01 1.633129999999999971e+00 1.791659999999999919e-01 3.407430000000000181e-01 5.228270000000000195e+00 1.865089999999999915e+00 1.900660000000000016e+00 7.077539999999999942e+00 3.399280000000000079e+00 1.970180000000000042e+00 1.606039999999999912e+00 5.357750000000000234e+00 2.005959999999999965e+00 3.460789999999999811e+00 7.082569999999999588e+00 2.082930000000000170e+00
7.063150000000000261e+00 3.840400000000000064e-02 2.233900000000000219e+00 1.774420000000000108e+00 1.817299999999999915e+00 2.006190000000000140e+00 3.611209999999999809e+00 3.230510000000000215e+00 2.084529999999999994e+00 4.979309999999999903e+00 5.490980000000000416e+00 2.201159999999999783e+00 1.714020000000000099e+00 7.073850000000000193e+00 3.689060000000000006e+00 3.450439999999999952e+00 1.448059999999999903e+00 4.067090000000000316e+00 5.467080000000000162e+00 3.570450000000000124e+00 3.874080000000000190e+00 9.692699999999999927e-02 5.452329999999999899e+00 3.836090000000000000e+00 3.651660000000000128e+00 6.316399999999999793e-02 5.641770000000000174e+00 5.358629999999999782e+00 1.947829999999999950e+00 5.777079999999999771e+00 5.305900000000000200e-02 3.622720000000000162e+00 5.619399999999999729e+00 1.789940000000000087e+00 5.315669999999999895e+00 5.711870000000000225e+00 5.462349999999999817e+00 1.180390000000000050e-01 3.915469999999999784e-01 3.343100000000000238e-02 1.852440000000000087e+00 2.010019999999999862e-01 1.755460000000000020e+00 3.562469999999999803e+00 3.195640000000000147e-01 3.426969999999999850e+00 5.490240000000000009e+00 2.397330000000000017e-01 9.671000000000000429e-02 1.808529999999999971e+00 3.925390000000000157e+00 1.867690000000000072e+00 3.497450000000000170e+00 3.885689999999999866e+00 3.600239999999999885e+00 5.497899999999999565e+00 4.078739999999999810e+00 5.359589999999999854e+00 1.050760000000000027e-01 3.690440000000000165e+00 1.955940000000000012e+00 1.882949999999999902e+00 5.699650000000000105e+00 3.605230000000000157e+00 3.547029999999999905e+00 5.679420000000000357e+00 5.373140000000000249e+00 5.299159999999999648e+00 5.736340000000000217e+00 7.139879999999999782e+00 6.959270000000000067e+00 5.568410000000000082e+00 3.621459999999999901e+00 1.822729999999999961e+00 2.460980000000000112e-01 5.335939999999999905e+00 3.656109999999999971e+00 4.334430000000000227e-01 7.124679999999999680e+00 5.338260000000000005e+00 4.041930000000000245e-01 1.665550000000000086e+00 3.350700000000000206e-02 2.120549999999999935e-01 5.505519999999999747e+00 1.921270000000000033e+00 2.169649999999999856e+00 2.502800000000000163e-02 3.572169999999999845e+00 2.059569999999999901e+00 1.915699999999999958e+00 5.147120000000000140e+00 2.221699999999999786e+00 3.576929999999999943e+00 1.104789999999999939e-01 1.950380000000000003e+00
3.244999999999999968e-02 7.133270000000000444e+00 2.125649999999999817e+00 1.661659999999999915e+00 1.759600000000000053e+00 2.087959999999999816e+00 3.590310000000000112e+00 3.810179999999999900e+00 2.124880000000000102e+00 5.460639999999999716e+00 5.377320000000000100e+00 1.964790000000000036e+00 1.823939999999999895e+00 3.367799999999999960e-02 3.798490000000000144e+00 3.713569999999999816e+00 1.642060000000000075e+00 3.861979999999999968e+00 5.212880000000000180e+00 3.550679999999999836e+00 3.921139999999999848e+00 7.039320000000000022e+00 5.356700000000000017e+00 3.956760000000000055e+00 3.513659999999999783e+00 7.092509999999999870e+00 5.577280000000000015e+00 5.353740000000000165e+00 1.632479999999999931e+00 5.677690000000000126e+00 8.890199999999999492e-02 3.626129999999999853e+00 5.664579999999999949e+00 1.723789999999999933e+00 5.410610000000000142e+00 5.580849999999999866e+00 5.239620000000000388e+00 3.180800000000000294e-02 4.324740000000000251e-01 1.107729999999999965e-01 1.796459999999999946e+00 2.586809999999999943e-01 1.822940000000000005e+00 3.513529999999999820e+00 3.806530000000000191e-01 3.315389999999999837e+00 5.307820000000000427e+00 1.802360000000000073e-01 1.508660000000000001e-01 1.739999999999999991e+00 3.885530000000000150e+00 1.795479999999999965e+00 3.626440000000000108e+00 3.828539999999999832e+00 3.585179999999999811e+00 5.490820000000000256e+00 3.927589999999999915e+00 5.425900000000000389e+00 4.343199999999999839e-02 3.878429999999999822e+00 1.774780000000000024e+00 1.763670000000000071e+00 5.634430000000000049e+00 3.506400000000000183e+00 3.566479999999999873e+00 5.676330000000000098e+00 5.392299999999999649e+00 5.301239999999999952e+00 5.863979999999999748e+00 5.934699999999999698e-02 7.126829999999999998e+00 5.623859999999999637e+00 3.469460000000000210e+00 1.864090000000000025e+00 2.856179999999999830e-01 5.383869999999999933e+00 3.493300000000000072e+00 2.788459999999999828e-01 2.382690000000000086e-01 5.353399999999999714e+00 3.627580000000000249e-01 1.769090000000000051e+00 7.204299999999999593e-02 3.782110000000000194e-01 5.461689999999999934e+00 1.819299999999999917e+00 2.135299999999999976e+00 7.153069999999999595e+00 3.645109999999999850e+00 2.022400000000000198e+00 1.827499999999999902e+00 5.370330000000000048e+00 2.201940000000000008e+00 3.596690000000000165e+00 1.059829999999999939e-01 2.277390000000000025e+00
7.144890000000000185e+00 7.104599999999999582e+00 2.000100000000000211e+00 1.632039999999999935e+00 1.851299999999999946e+00 2.051820000000000199e+00 3.551149999999999807e+00 3.711599999999999788e+00 2.150049999999999795e+00 5.404959999999999987e+00 5.267299999999999649e+00 1.981000000000000094e+00 1.800410000000000066e+00 1.072390000000000010e-01 3.846890000000000143e+00 3.630560000000000009e+00 1.508520000000000083e+00 3.952129999999999921e+00 5.153769999999999740e+00 3.565300000000000136e+00 3.785489999999999799e+00 7.047880000000000145e+00 5.382640000000000313e+00 3.875210000000000043e+00 3.582289999999999974e+00 7.048569999999999780e+00 5.971009999999999707e+00 5.388609999999999900e+00 1.688439999999999941e+00 5.634710000000000107e+00 7.048659999999999926e+00 3.667300000000000004e+00 5.823210000000000441e+00 1.856570000000000054e+00 5.244650000000000034e+00 5.552950000000000053e+00 5.478769999999999918e+00 7.163269999999999804e+00 3.370710000000000095e-01 8.939400000000000124e-02 1.819660000000000055e+00 3.625659999999999994e-01 1.734990000000000032e+00 3.622119999999999784e+00 3.592659999999999743e-01 3.532599999999999962e+00 5.446039999999999992e+00 3.679589999999999805e-01 6.928790000000000227e+00 1.911070000000000046e+00 3.969869999999999788e+00 1.941109999999999891e+00 3.429650000000000087e+00 3.996869999999999923e+00 3.564000000000000057e+00 5.425989999999999647e+00 3.985100000000000087e+00 5.328140000000000320e+00 7.062500000000000000e+00 3.407309999999999839e+00 1.726580000000000004e+00 1.802240000000000064e+00 5.541649999999999743e+00 3.637480000000000047e+00 3.633030000000000204e+00 5.692719999999999558e+00 5.521049999999999791e+00 5.445739999999999803e+00 5.639020000000000366e+00 1.646799999999999931e-01 7.024980000000000224e+00 5.644630000000000258e+00 3.532090000000000174e+00 1.801180000000000003e+00 3.671619999999999884e-01 5.441749999999999865e+00 3.419039999999999857e+00 3.383079999999999976e-01 2.646479999999999944e-01 5.482719999999999594e+00 2.040800000000000114e-01 1.802380000000000093e+00 1.382819999999999883e-01 3.306810000000000027e-01 5.331450000000000244e+00 1.811770000000000103e+00 2.098590000000000177e+00 1.041310000000000013e-01 3.681239999999999846e+00 2.302160000000000206e+00 1.675289999999999946e+00 5.534329999999999750e+00 2.225299999999999834e+00 3.580000000000000071e+00 7.146440000000000126e+00 2.060379999999999878e+00
6.959120000000000417e+00 7.105970000000000120e+00 1.948979999999999935e+00 1.733929999999999971e+00 1.741579999999999906e+00 2.301089999999999858e+00 3.396119999999999806e+00 3.584159999999999791e+00 2.137389999999999901e+00 5.281439999999999912e+00 5.151099999999999568e+00 2.128789999999999960e+00 1.914719999999999978e+00 7.136750000000000149e+00 3.811690000000000023e+00 3.524799999999999933e+00 1.854740000000000055e+00 4.066550000000000331e+00 5.357750000000000234e+00 3.853650000000000020e+00 3.999899999999999789e+00 1.070559999999999984e-01 5.486139999999999795e+00 3.800710000000000033e+00 3.560649999999999871e+00 7.135729999999999684e+00 5.691069999999999851e+00 5.290070000000000050e+00 1.683939999999999992e+00 5.637229999999999741e+00 7.089310000000000223e+00 3.668480000000000185e+00 5.665329999999999977e+00 1.957009999999999916e+00 5.276410000000000267e+00 5.650109999999999744e+00 5.459439999999999849e+00 3.144999999999999792e-03 1.423280000000000101e-01 1.456310000000000104e-01 1.638099999999999890e+00 3.105800000000000227e-01 1.760599999999999943e+00 3.558850000000000069e+00 3.903789999999999760e-01 3.634279999999999955e+00 5.322919999999999874e+00 1.377220000000000111e-01 7.009030000000000094e+00 1.862919999999999909e+00 3.885839999999999961e+00 1.913480000000000070e+00 3.474740000000000162e+00 4.015500000000000291e+00 3.526850000000000041e+00 5.461730000000000196e+00 3.735289999999999999e+00 5.271279999999999966e+00 7.089520000000000266e+00 3.991420000000000190e+00 1.591760000000000064e+00 1.936770000000000103e+00 5.819320000000000270e+00 3.612049999999999983e+00 3.621150000000000091e+00 5.759540000000000326e+00 5.448780000000000179e+00 5.328199999999999825e+00 5.729079999999999728e+00 7.163230000000000430e+00 7.044789999999999885e+00 5.594380000000000130e+00 3.662009999999999987e+00 1.842370000000000063e+00 2.517170000000000241e-01 5.371159999999999712e+00 3.558710000000000040e+00 2.450759999999999883e-01 7.073680000000000412e+00 5.371749999999999581e+00 3.361509999999999776e-01 1.896220000000000017e+00 8.830000000000000349e-02 3.697340000000000071e-01 5.323780000000000179e+00 1.982329999999999925e+00 2.287100000000000133e+00 7.139090000000000380e+00 3.548210000000000086e+00 2.080270000000000064e+00 1.884430000000000049e+00 5.315489999999999604e+00 1.953850000000000087e+00 3.889990000000000059e+00 5.628500000000000170e-02 1.981130000000000058e+00
7.140019999999999811e+00 7.040969999999999729e+00 2.108449999999999935e+00 1.775320000000000009e+00 1.656709999999999905e+00 1.980120000000000102e+00 3.562209999999999877e+00 3.498909999999999965e+00 1.964180000000000037e+00 5.339419999999999611e+00 5.296949999999999825e+00 2.070809999999999818e+00 1.805549999999999988e+00 6.284399999999999709e-02 3.816289999999999960e+00 3.438149999999999817e+00 1.786389999999999922e+00 3.824170000000000069e+00 5.323089999999999655e+00 3.334060000000000024e+00 3.911200000000000010e+00 7.099680000000000213e+00 5.496050000000000324e+00 3.987769999999999815e+00 3.425559999999999938e+00 2.238800000000000165e-02 5.665189999999999948e+00 5.492680000000000007e+00 1.743959999999999955e+00 5.770940000000000403e+00 2.266890000000000016e-01 3.557300000000000129e+00 5.797939999999999650e+00 1.763319999999999999e+00 5.409209999999999852e+00 5.520380000000000287e+00 5.361640000000000406e+00 7.156670000000000087e+00 4.463440000000000185e-01 9.670299999999999729e-02 1.964150000000000063e+00 3.197099999999999942e-01 1.913820000000000077e+00 3.587839999999999918e+00 3.430289999999999728e-01 3.729010000000000158e+00 5.392610000000000348e+00 2.491549999999999876e-01 7.144099999999999895e+00 1.598060000000000036e+00 4.013910000000000089e+00 1.777649999999999952e+00 3.415719999999999867e+00 3.754919999999999813e+00 3.641849999999999810e+00 5.418009999999999771e+00 3.988980000000000192e+00 5.104729999999999990e+00 1.784499999999999975e-01 3.786449999999999871e+00 1.789409999999999945e+00 1.867839999999999945e+00 5.665689999999999671e+00 3.509199999999999875e+00 3.688439999999999941e+00 5.763300000000000090e+00 5.383370000000000211e+00 5.586210000000000342e+00 5.724380000000000024e+00 8.824799999999999311e-02 7.153609999999999580e+00 5.711170000000000080e+00 3.478359999999999896e+00 1.831919999999999993e+00 2.598989999999999911e-01 5.430380000000000429e+00 3.692979999999999929e+00 3.176769999999999872e-01 1.690200000000000036e-02 5.371669999999999945e+00 1.909520000000000106e-01 1.909589999999999899e+00 7.116740000000000066e+00 2.540609999999999813e-01 5.290969999999999729e+00 1.791400000000000103e+00 2.060770000000000213e+00 7.090489999999999959e+00 3.527870000000000061e+00 2.183699999999999974e+00 1.958909999999999929e+00 5.271219999999999573e+00 2.285179999999999989e+00 3.514079999999999870e+00 1.039759999999999990e-01 2.118520000000000181e+00