-5.343660680246540142e+04
-5.343675880974910251e+04
-5.343661628141519759e+04
-5.343624515568229981e+04
-5.343674758124339860e+04
-5.343639710337299766e+04
-5.343560335232129728e+04
-5.343615639119360276e+04
-5.343717061418879894e+04
-5.343609641703010129e+04
-5.343633019901409716e+04
-5.343660146957830148e+04
-5.343614501955609740e+04
-5.343668144819120062e+04
-5.343661108485709701e+04
-5.343583438010499958e+04
-5.343696827060580108e+04
-5.343602612009180302e+04
-5.343665400986369787e+04
-5.343677270170510019e+04
-5.343716649234439683e+04
-5.343595394964959996e+04
-5.343651531751859875e+04
-5.343656510414800141e+04
-5.343632746386180224e+04
-5.343614106179620285e+04
-5.343654792764179729e+04
-5.343652242037029646e+04
-5.343644234515699645e+04
-5.343602766923589661e+04
-5.343622922232819838e+04
-5.343670900665689987e+04
-5.343715476056410262e+04
-5.343635461646970361e+04
-5.343615265874409670e+04
-5.343613120025450189e+04
-5.343629597552790074e+04
-5.343661325564530125e+04
-5.343602746896009921e+04
-5.343696660404460272e+04
-5.343639057304889866e+04
-5.343586912074349675e+04
-5.343641338870640175e+04
-5.343658263440219889e+04
-5.343613387581380084e+04
-5.343643888414099638e+04
-5.343710090542460239e+04
-5.343614588759920298e+04
-5.343590222012739832e+04
-5.343669677173809760e+04
-5.343676941797129984e+04
-5.343619823373139661e+04
-5.343684650346980197e+04
-5.343701903915800358e+04
-5.343618929465560359e+04
-5.343605116068809730e+04
-5.343639425406899682e+04
-5.343708558051710133e+04
-5.343713976695520250e+04
-5.343603440296510234e+04
-5.343600140725659730e+04
-5.343643584408509923e+04
-5.343609332010240178e+04
-5.343609288335969904e+04
-5.343629872782339953e+04
-5.343548677303570003e+04
-5.343628509437549656e+04
-5.343543433547329914e+04
-5.343596888026419765e+04
-5.343659437897180032e+04
-5.343674687456380343e+04
-5.343620255108970014e+04
-5.343666148891270132e+04
-5.343653180993060232e+04
-5.343511287242190156e+04
-5.343648839008490177e+04
-5.343682196737250342e+04
-5.343665225513759651e+04
-5.343570506317030231e+04
-5.343680394676919968e+04
-5.343650360056859790e+04
-5.343599627736640105e+04
-5.343639393419920088e+04
-5.343631054980940098e+04
-5.343548470143300074e+04
-5.343705723700289673e+04
-5.343631131363299937e+04
-5.343624642141979712e+04
-5.343727887658689724e+04
-5.343660349179230252e+04
-5.343611237786769925e+04
-5.343687911998759955e+04
-5.343645255867800006e+04
-5.343579686091199983e+04
-5.343573033873690292e+04
-5.343635941397280112e+04
-5.343692419809509738e+04
-5.343567730538119940e+04
-5.343627543338159740e+04
-5.343682813524099765e+04
-5.343600177175310091e+04
-5.343654138861010142e+04
-5.343664145167369861e+04
-5.343648306617749768e+04
-5.343656916027700208e+04
-5.343657744260610343e+04
-5.343500899758750165e+04
-5.343639955348610238e+04
-5.343610646823520074e+04
-5.343657041308910266e+04
-5.343711596134759748e+04
-5.343650164434209728e+04
-5.343600907909830130e+04
-5.343646219218840270e+04
-5.343680623470240243e+04
-5.343709095013960177e+04
-5.343604977943820268e+04
-5.343606690846050333e+04
-5.343616987130539928e+04
-5.343649258227080281e+04
-5.343675488518719794e+04
-5.343624212705520040e+04
-5.343698988596910203e+04
-5.343559627913009899e+04
-5.343684119194359664e+04
-5.343696606076930038e+04
-5.343566528434400243e+04
-5.343695363469060248e+04
-5.343653783357870270e+04
-5.343557090342559968e+04
-5.343644546997630096e+04
-5.343585817700500047e+04
-5.343623731390549801e+04
-5.343634179691429745e+04
-5.343713505108620302e+04
-5.343648984494159959e+04
-5.343573892651379720e+04
-5.343623445820680354e+04
-5.343591250426199986e+04
-5.343686332119390136e+04
-5.343633595816759771e+04
-5.343678375796280307e+04
-5.343642097183899750e+04
-5.343576070160789823e+04
-5.343611171880790062e+04
-5.343684208447700075e+04
-5.343650163713109941e+04
-5.343736154177969729e+04
-5.343681473757979984e+04
-5.343646283941120055e+04
-5.343657532392769645e+04
-5.343652679133500351e+04
-5.343694555549439974e+04
-5.343689913817869819e+04
-5.343692111831060174e+04
-5.343639249185969675e+04
-5.343626296185990213e+04
-5.343601656957610248e+04
-5.343631024204860296e+04
-5.343655972214430221e+04
-5.343622132109449740e+04
-5.343704185808079637e+04
-5.343676018759760336e+04
-5.343578802401490248e+04
-5.343612731868650008e+04
-5.343654307449139742e+04
-5.343520939011430164e+04
-5.343687693641010264e+04
-5.343673684948150185e+04
-5.343669808373499836e+04
-5.343632113027600280e+04
-5.343628870587050187e+04
-5.343502070093189832e+04
-5.343564647284169769e+04
-5.343623258157359669e+04
-5.343608774394549982e+04
-5.343627709694959776e+04
-5.343619194477229757e+04
-5.343603737172720139e+04
-5.343702950560890167e+04
-5.343588635725079803e+04
-5.343654520623120334e+04
-5.343668425218830089e+04
-5.343657286075309821e+04
-5.343643947830160323e+04
-5.343669958158570080e+04
-5.343698762239010102e+04
-5.343622600635069830e+04
-5.343649796223360318e+04
-5.343579490005959815e+04
-5.343657333872110030e+04
-5.343569529632409831e+04
-5.343661038389179885e+04
-5.343589434474459995e+04
-5.343684035777860117e+04
-5.343694449833220278e+04
-5.343664675081869791e+04
-5.343636817508620152e+04
-5.343654362116810080e+04
-5.343575286962719838e+04
-5.343616472032629827e+04
-5.343662983118800184e+04
-5.343705509138530033e+04
-5.343679844285849686e+04
-5.343678141560679796e+04
-5.343708595372120180e+04
-5.343621655692529748e+04
-5.343718086458129983e+04
-5.343567755028369720e+04
-5.343583631551470171e+04
-5.343583966319530009e+04
-5.343621406082499743e+04
-5.343618943030430091e+04
-5.343604692850139691e+04
-5.343611405612980161e+04
-5.343704405580829916e+04
-5.343716070040119666e+04
-5.343670806051699765e+04
-5.343710027997090219e+04
-5.343641409946780186e+04
-5.343652742971399857e+04
-5.343640350648389722e+04
-5.343602541749380180e+04
-5.343552430937189638e+04
-5.343674997856639675e+04
-5.343655167600999994e+04
-5.343639358657370030e+04
-5.343581915424689942e+04
-5.343616201837189874e+04
-5.343660742778299755e+04
-5.343706690928959870e+04
-5.343576845304290327e+04
-5.343649258961789747e+04
-5.343638681406829710e+04
-5.343631923772420123e+04
-5.343594462485239637e+04
-5.343662566825439717e+04
-5.343601355183360283e+04
-5.343627412111259764e+04
-5.343625910859180294e+04
-5.343690595435840078e+04
-5.343539924652899936e+04
-5.343651359993599908e+04
-5.343623086548769788e+04
-5.343640808126189950e+04
-5.343637366375859710e+04
-5.343636758908910269e+04
-5.343589485822340066e+04
-5.343649469958859845e+04
-5.343635988962779811e+04
-5.343636912707649753e+04
-5.343676593491410313e+04
-5.343676422930449917e+04
-5.343560116629469849e+04
-5.343639823577480274e+04
-5.343596052636919921e+04
-5.343633388139469753e+04
-5.343611968562100083e+04
-5.343675030170159880e+04
-5.343666248825079674e+04
-5.343663572367729648e+04
-5.343707424683940189e+04
-5.343697192196550168e+04
-5.343671381626909715e+04
-5.343619154245199752e+04
-5.343616077494769706e+04
-5.343602160626729892e+04
-5.343573506685109896e+04
-5.343616373799539724e+04
-5.343521912376260298e+04
-5.343581147002409853e+04
-5.343662377026030299e+04
-5.343607742307549779e+04
-5.343626201381529972e+04
-5.343593658470459923e+04
-5.343699906001530326e+04
-5.343655135437149875e+04
-5.343677062683709664e+04
-5.343623529808610328e+04
-5.343622851850569714e+04
-5.343627881412410352e+04
-5.343644527854419721e+04
-5.343710864026070340e+04
-5.343705860383080289e+04
-5.343651140180040238e+04
-5.343639359841070109e+04
-5.343670645123570284e+04
-5.343623373860170250e+04
-5.343688873281740234e+04
-5.343636452780829859e+04
-5.343531047033950017e+04
-5.343627300707849645e+04
-5.343610363648249768e+04
-5.343534313175609714e+04
-5.343651706816299702e+04
-5.343614453981939732e+04
-5.343672000617880258e+04
-5.343719062135930290e+04
-5.343682046965789777e+04
-5.343661463294950227e+04
-5.343653993089620053e+04
-5.343607523936189682e+04
-5.343704323919460148e+04
-5.343657447125890030e+04
-5.343620877106799890e+04
-5.343631596569129761e+04
-5.343633048446149769e+04
-5.343656476318930072e+04
-5.343553268217879668e+04
-5.343604503880690027e+04
-5.343658719775130157e+04
-5.343726451537050161e+04
-5.343672006645199872e+04
-5.343714909882740176e+04
-5.343701832336249936e+04
-5.343696913674419920e+04
-5.343702647684569820e+04
-5.343682793646179925e+04
-5.343696016651130049e+04
-5.343624539854389877e+04
-5.343596410493829899e+04
-5.343680703566950251e+04
-5.343656759031610272e+04
-5.343621729122460238e+04
-5.343602793536319950e+04
-5.343607429961679736e+04
-5.343684308966549725e+04
-5.343718786226100201e+04
-5.343631524540590181e+04
-5.343616584919059824e+04
-5.343644028716000321e+04
-5.343588885035790008e+04
-5.343601219507389760e+04
-5.343598898498750350e+04
-5.343660057037809747e+04
-5.343616721479399712e+04
-5.343649094400939794e+04
-5.343652580601070076e+04
-5.343608962343580060e+04
-5.343568724923749687e+04
-5.343561580207390216e+04
-5.343650225632620277e+04
-5.343701580045899755e+04
-5.343607089764950069e+04
-5.343688200561889971e+04
-5.343645937526589842e+04
-5.343670753560939920e+04
-5.343571484062899981e+04
-5.343623446963549941e+04
-5.343585156218949851e+04
-5.343585282098819880e+04
-5.343609156007009733e+04
-5.343603604394759896e+04
-5.343574802450420248e+04
-5.343628812300260324e+04
-5.343614352292990225e+04
-5.343696652989360155e+04
-5.343581767068219779e+04
-5.343632622329479636e+04
-5.343541593118940364e+04
-5.343741433009690081e+04
-5.343708958970639651e+04
-5.343693879809130158e+04
-5.343568613996540080e+04
-5.343542498958719807e+04
-5.343688537398009794e+04
-5.343697544271039806e+04
-5.343631464811600017e+04
-5.343623670722769748e+04
-5.343628205295909720e+04
-5.343633588551320281e+04
-5.343654060152079910e+04
-5.343606932904919813e+04
-5.343644115887670341e+04
-5.343693069957510306e+04
-5.343697940972210199e+04
-5.343605613969120168e+04
-5.343618548152419680e+04
-5.343704611326110171e+04
-5.343657541807909729e+04
-5.343699887960380147e+04
-5.343587859166590351e+04
-5.343531046993129712e+04
-5.343688216725450184e+04
-5.343563860562229820e+04
-5.343556200720759807e+04
-5.343614072206209676e+04
-5.343677028914380207e+04
-5.343609067882940144e+04
-5.343681211603499833e+04
-5.343496778077549970e+04
-5.343575079271830327e+04
-5.343610380777819955e+04
-5.343621357088410150e+04
-5.343526901787689712e+04
-5.343665745400860033e+04
-5.343701570630759670e+04
-5.343638095450479886e+04
-5.343669270853420312e+04
-5.343589578082539811e+04
-5.343643479168479826e+04
-5.343660571822780184e+04
-5.343657996088360233e+04
-5.343713860938289872e+04
-5.343668833593680029e+04
-5.343584858648860245e+04
-5.343658245154169708e+04
-5.343631366959460138e+04
-5.343654213529040135e+04
-5.343743091761269898e+04
-5.343575873817050160e+04
-5.343695078116869990e+04
-5.343691419314929954e+04
-5.343558946172580181e+04
-5.343635962363659928e+04
-5.343603608326810354e+04
-5.343687078582079994e+04
-5.343611243623610062e+04
-5.343558678453379980e+04
-5.343575878238899895e+04
-5.343677937937890238e+04
-5.343642029686059686e+04
-5.343666497047329904e+04
-5.343610241169809888e+04
-5.343633025506950071e+04
-5.343628823837889649e+04
-5.343630795234670222e+04
-5.343694597087620059e+04
-5.343634357422590256e+04
-5.343634219964280055e+04
-5.343650179577350355e+04
-5.343632280472850107e+04
-5.343531437013899995e+04
-5.343620989612270205e+04
-5.343672005515929777e+04
-5.343690154026370146e+04
-5.343617583032650145e+04
-5.343635411278699758e+04
-5.343600895868789667e+04
-5.343630160148169671e+04
-5.343600588284910191e+04
-5.343592060944499826e+04
-5.343605939063530241e+04
-5.343538880320780299e+04
-5.343591401762320311e+04
-5.343619630308369960e+04
-5.343673660049740283e+04
-5.343542155061240192e+04
-5.343645714991889690e+04
-5.343635642384980019e+04
-5.343644677789149864e+04
-5.343654903909080167e+04
-5.343665993242149852e+04
-5.343595642057940131e+04
-5.343617418104440003e+04
-5.343748180358199897e+04
-5.343675400244990306e+04
-5.343621578466630308e+04
-5.343682776094839937e+04
-5.343689153354909649e+04
-5.343592699541270122e+04
-5.343674499643399758e+04
-5.343696951130889647e+04
-5.343710387799619639e+04
-5.343620061513569817e+04
-5.343704530345030071e+04
-5.343581718985710177e+04
-5.343577214848499716e+04
-5.343626603293680091e+04
-5.343662960519750050e+04
-5.343625867674710025e+04
-5.343749648004220217e+04
-5.343589452202669781e+04
-5.343666780072940310e+04
-5.343619400372169912e+04
-5.343600774179479777e+04
-5.343618375727489911e+04
-5.343720259831409930e+04
-5.343705798354730359e+04
-5.343595118660570006e+04
-5.343690664906510210e+04
-5.343651141214070230e+04
-5.343672562641809782e+04
-5.343668156465589709e+04
-5.343619593641030224e+04
-5.343573828718240111e+04
-5.343662893756609992e+04
-5.343651423205649917e+04
-5.343679052774709999e+04
-5.343664208569900075e+04
-5.343560146235459979e+04
-5.343640777526990132e+04
-5.343632833312950243e+04
-5.343734047091630055e+04
-5.343628762816359813e+04
-5.343574261651359848e+04
-5.343564142608230031e+04
-5.343677956808979798e+04
-5.343667729682230129e+04
-5.343597441369920125e+04
-5.343644309129309841e+04
-5.343698247440429986e+04
-5.343585434972369694e+04
-5.343670202639250056e+04
-5.343534744938649965e+04
-5.343624352435980109e+04
-5.343620953870109952e+04
-5.343582923361589928e+04
-5.343647062962240307e+04
-5.343630726974910067e+04
-5.343648209527529980e+04
-5.343618745747890353e+04
-5.343682276534639823e+04
-5.343647462615850236e+04
-5.343660762860310206e+04
-5.343653089984579856e+04
-5.343696548075859755e+04
-5.343577978672060271e+04
-5.343594528554480348e+04
-5.343584624522110244e+04
-5.343642349827999715e+04
-5.343603631633360055e+04
-5.343667707899519883e+04
-5.343616385813360102e+04
-5.343747849277280329e+04
-5.343651342224569817e+04
-5.343683965341190196e+04
-5.343622667479840311e+04
-5.343656951824270072e+04
-5.343561972377869824e+04
-5.343643194904750271e+04
-5.343602067931149941e+04
-5.343694105854100053e+04
-5.343605401121670002e+04
-5.343631124982229812e+04
-5.343716915130479902e+04
-5.343620698763379914e+04
-5.343673462535900035e+04
-5.343645416918380215e+04
-5.343681699517230300e+04
-5.343626062916399678e+04
-5.343694174508430297e+04
-5.343612623580949730e+04
-5.343627557692169648e+04
-5.343624700455980201e+04
-5.343672648439309705e+04
-5.343538801924780273e+04
-5.343637802356659813e+04
-5.343635664916010137e+04
-5.343600552134580357e+04
-5.343532329261599807e+04
-5.343672373454659828e+04
-5.343677654082330264e+04
-5.343684878011029650e+04
-5.343636756840840098e+04
-5.343690485828380042e+04
-5.343610898501620250e+04
-5.343583003567140258e+04
-5.343644560671350337e+04
-5.343697459099409753e+04
-5.343573382233839948e+04
-5.343632725882399973e+04
-5.343618094538649893e+04
-5.343644906364780036e+04
-5.343657651428969984e+04
-5.343683198946149787e+04
-5.343641967113479768e+04
-5.343686819652160193e+04
-5.343699260669940122e+04
-5.343688211990670243e+04
-5.343651549520900153e+04
-5.343689623268310243e+04
-5.343619340602360171e+04
-5.343582332616030180e+04
-5.343567147139649751e+04
-5.343680545101460302e+04
-5.343662212179460039e+04
-5.343615572233779676e+04
-5.343699506429560279e+04
-5.343669664466090035e+04
-5.343645009441510047e+04
-5.343622804012960114e+04
-5.343654604951199872e+04
-5.343726360106799984e+04
-5.343625561097649916e+04
-5.343681457635229890e+04
-5.343682413530349731e+04
-5.343575369494850020e+04
-5.343648008040840068e+04
-5.343653983565630188e+04
-5.343640615183870250e+04
-5.343589094196089718e+04
-5.343573251006939972e+04
-5.343640323423399968e+04
-5.343683294036330335e+04
-5.343628672760279733e+04
-5.343691823431199737e+04
-5.343718729898530000e+04
-5.343639164313660149e+04
-5.343612693949590175e+04
-5.343703943517909647e+04
-5.343569774820600287e+04
-5.343665418442469672e+04
-5.343601500274459977e+04
-5.343657445085039944e+04
-5.343682398319189815e+04
-5.343575177314449684e+04
-5.343628535288370040e+04
-5.343610744675659953e+04
-5.343666361956409673e+04
-5.343677549332110357e+04
-5.343706713636859786e+04
-5.343594059539060254e+04
-5.343611802681499830e+04
-5.343652823612339853e+04
-5.343554532758129790e+04
-5.343559535952129954e+04
-5.343733630117979919e+04
-5.343580436186619772e+04
-5.343678759830549825e+04
-5.343631456539339706e+04
-5.343580763580390339e+04
-5.343613240367789695e+04
-5.343530304176759819e+04
-5.343615353522280202e+04
-5.343674648380830331e+04
-5.343567428342089988e+04
-5.343664876282850310e+04
-5.343524536397270276e+04
-5.343664438859839720e+04
-5.343638968146790285e+04
-5.343656106720300158e+04
-5.343515748317380348e+04
-5.343710842420229892e+04
-5.343662829143179988e+04
-5.343669867816769693e+04
-5.343631500540149864e+04
-5.343651797634299874e+04
-5.343649557321010070e+04
-5.343609704384429642e+04
-5.343631962548640149e+04
-5.343635077150110010e+04
-5.343561898798280163e+04
-5.343646326363670232e+04
-5.343517806586509687e+04
-5.343619681846730236e+04
-5.343721077506309666e+04
-5.343616196381310147e+04
-5.343692303263150097e+04
-5.343645187009400252e+04
-5.343655928145589860e+04
-5.343571357244240062e+04
-5.343699502973710332e+04
-5.343717616381469998e+04
-5.343663152727360284e+04
-5.343671264822039666e+04
-5.343624792199159856e+04
-5.343589710084970284e+04
-5.343607471445429837e+04
-5.343629667009849800e+04
-5.343598061177229829e+04
-5.343571691903450119e+04
-5.343614247896520101e+04
-5.343637925365720002e+04
-5.343578142239690351e+04
-5.343633301103860140e+04
-5.343657873011269839e+04
-5.343584224433120107e+04
-5.343633645014939975e+04
-5.343666497768429690e+04
-5.343688948072229687e+04
-5.343625899661699805e+04
-5.343601246419450035e+04
-5.343633741356850078e+04
-5.343625246329959919e+04
-5.343661845506059763e+04
-5.343599326234500040e+04
-5.343648621167749661e+04
-5.343596613517969672e+04
-5.343625362223249977e+04
-5.343663161652699637e+04
-5.343613602360840014e+04
-5.343593974408240319e+04
-5.343568376291490131e+04
-5.343617331000800186e+04
-5.343687514862210082e+04
-5.343694812887509761e+04
-5.343576760608860059e+04
-5.343655696290989727e+04
-5.343713378902219847e+04
-5.343641282066870190e+04
-5.343704653530960059e+04
-5.343592399182009831e+04
-5.343697049568070361e+04
-5.343704666959780297e+04
-5.343574829090359708e+04
-5.343643398119370249e+04
-5.343676324738169933e+04
-5.343609591185070167e+04
-5.343609004099450249e+04
-5.343589569932730228e+04
-5.343666316418159840e+04
-5.343580764845720114e+04
-5.343638990092770109e+04
-5.343630288504269993e+04
-5.343702775550870138e+04
-5.343665804980190296e+04
-5.343616196381310147e+04
-5.343675934445280291e+04
-5.343594938779710355e+04
-5.343668109811670001e+04
-5.343652191451060207e+04
-5.343637845160169672e+04
-5.343640596258349979e+04
-5.343704540018669650e+04
-5.343569241599910310e+04
-5.343573321021829906e+04
-5.343679799659179844e+04
-5.343619910789719870e+04
-5.343627157453520340e+04
-5.343711178440009826e+04
-5.343652655024210253e+04
-5.343671862642549968e+04
-5.343656306030089763e+04
-5.343642406033109728e+04
-5.343582342670640355e+04
-5.343604420124040189e+04
-5.343599321050730214e+04
-5.343656516700630164e+04
-5.343674610053590004e+04
-5.343739166763959656e+04
-5.343651807063040178e+04
-5.343683798127229966e+04
-5.343635696522030048e+04
-5.343673694458529644e+04
-5.343628470647730137e+04
-5.343632979438079929e+04
-5.343657236659440241e+04
-5.343618121015319775e+04
-5.343677460731840256e+04
-5.343655526940940035e+04
-5.343524057368060312e+04
-5.343682962329559814e+04
-5.343616777412399824e+04
-5.343626626164850313e+04
-5.343704594659130089e+04
-5.343601892526570009e+04
-5.343603081106240279e+04
-5.343706742916299845e+04
-5.343628394333399774e+04
-5.343608565560779971e+04
-5.343697797935570270e+04
-5.343683793732590129e+04
-5.343694771607840084e+04
-5.343724329579679761e+04
-5.343588527682280255e+04
-5.343640150127700326e+04
-5.343646427385930292e+04
-5.343696424685839884e+04
-5.343612285955689731e+04
-5.343616451392800082e+04
-5.343677315885639837e+04
-5.343641176051319781e+04
-5.343666602232940204e+04
-5.343697854970629851e+04
-5.343752085790519777e+04
-5.343533276721189759e+04
-5.343653338166019967e+04
-5.343599104244019691e+04
-5.343600262115649821e+04
-5.343606743758590164e+04
-5.343697683266799868e+04
-5.343702349243710341e+04
-5.343566790452819987e+04
-5.343528278792589845e+04
-5.343704237346439913e+04
-5.343695427783160267e+04
-5.343618243534579960e+04
-5.343611394293049671e+04
-5.343682842517829704e+04
-5.343646188320319925e+04
-5.343642183049419691e+04
-5.343645163838900044e+04
-5.343604336258560215e+04
-5.343652009393290064e+04
-5.343625064721179660e+04
-5.343704470888149808e+04
-5.343622125483480340e+04
-5.343683691376970091e+04
-5.343696745630510122e+04
-5.343589773188169784e+04
-5.343635454626430146e+04
-5.343646633716260112e+04
-5.343611972317269829e+04
-5.343601720210469648e+04
-5.343644483663130086e+04
-5.343593437990220264e+04
-5.343662225159289665e+04
-5.343724429853640322e+04
-5.343638080416189769e+04
-5.343582650975629804e+04
-5.343623792126360058e+04
-5.343700776153570041e+04
-5.343703403535200050e+04
-5.343616241905950301e+04
-5.343718310707149794e+04
-5.343617100438739726e+04
-5.343636017657189950e+04
-5.343635239778950199e+04
-5.343677894127560285e+04
-5.343577545317159820e+04
-5.343588770693550032e+04
-5.343617695334029850e+04
-5.343568559764249949e+04
-5.343623728356479842e+04
-5.343576181047179853e+04
-5.343714646408509725e+04
-5.343681870812900161e+04
-5.343581273453710310e+04
-5.343594262876130233e+04
-5.343630478997559840e+04
-5.343687924298310099e+04
-5.343614699197329901e+04
-5.343710514631889964e+04
-5.343634915500880015e+04
-5.343637288347209687e+04
-5.343609252852330246e+04
-5.343630665123429935e+04
-5.343636399487339804e+04
-5.343697811745350191e+04
-5.343643625660969701e+04
-5.343689082333200349e+04
-5.343549254838000343e+04
-5.343676289050439664e+04
-5.343649631730550027e+04
-5.343626150523449905e+04
-5.343636194000569958e+04
-5.343620598611880268e+04
-5.343692047802670277e+04
-5.343626289791319869e+04
-5.343629529660390108e+04
-5.343614600324760249e+04
-5.343599214273259713e+04
-5.343715247059010289e+04
-5.343648461885909637e+04
-5.343725071076310269e+04
-5.343649264757810306e+04
-5.343685721046930121e+04
-5.343667904066389747e+04
-5.343572975559699989e+04
-5.343605529396129714e+04
-5.343536481188250036e+04
-5.343620099174130155e+04
-5.343665176791769773e+04
-5.343687882705710217e+04
-5.343672958893990290e+04
-5.343593651463530114e+04
-5.343682424714230001e+04
-5.343569595837710222e+04
-5.343632638942029735e+04
-5.343585708365160099e+04
-5.343628710624929954e+04
-5.343646882700429705e+04
-5.343591569180360239e+04
-5.343655278637060110e+04
-5.343670437963300355e+04
-5.343637245761389931e+04
-5.343700200741639856e+04
-5.343679924817950086e+04
-5.343607238801699714e+04
-5.343637063104980189e+04
-5.343710110542830080e+04
-5.343665008693450363e+04
-5.343639407270510128e+04
-5.343642602934689785e+04
-5.343573644565189898e+04
-5.343612960770820064e+04
-5.343628319502090017e+04
-5.343659643084619893e+04
-5.343592896361219755e+04
-5.343638087953739887e+04
-5.343669028740120120e+04
-5.343627210461300274e+04
-5.343661451471599867e+04
-5.343539242449890298e+04
-5.343652225247600290e+04
-5.343600964958500117e+04
-5.343678615270069713e+04
-5.343709711474269716e+04
-5.343683851175830205e+04
-5.343611425667769799e+04
-5.343575280336749711e+04
-5.343613565326150274e+04
-5.343655857287150138e+04
-5.343735700278470176e+04
-5.343574690012980136e+04
-5.343629333384669735e+04
-5.343689742862350249e+04
-5.343664102282230306e+04
-5.343547025763009879e+04
-5.343676718704600353e+04
-5.343622165946810128e+04
-5.343653621749459853e+04
-5.343615844619739801e+04
-5.343628095674850192e+04
-5.343638801585909823e+04
-5.343660670015060168e+04
-5.343638808987409720e+04
-5.343690893182809668e+04
-5.343671126955559885e+04
-5.343670235360939841e+04
-5.343647284081950056e+04
-5.343635409931730101e+04
-5.343548810380850045e+04
-5.343647568536159815e+04
-5.343644728660830151e+04
-5.343522213647099852e+04
-5.343637418295179668e+04
-5.343595231968769804e+04
-5.343606668247000198e+04
-5.343564020619590156e+04
-5.343619227865600260e+04
-5.343653614552049839e+04
-5.343649557769999956e+04
-5.343613179495929944e+04
-5.343664520766110218e+04
-5.343641545024090010e+04
-5.343579656063440052e+04
-5.343682706583359686e+04
-5.343631297148660087e+04
-5.343691015429949766e+04
-5.343694497820489778e+04
-5.343666797297749872e+04
-5.343694957447989873e+04
-5.343590816758370056e+04
-5.343536236707559874e+04
-5.343675552737589896e+04
-5.343642509014599636e+04
-5.343705348509720352e+04
-5.343612104278879997e+04
-5.343693884299010097e+04
-5.343585363011869777e+04
-5.343628226616029860e+04
-5.343596910965620191e+04
-5.343590407607990346e+04
-5.343718973576479766e+04
-5.343665198628910002e+04
-5.343699720814450120e+04
-5.343667274667070160e+04
-5.343713395446739742e+04
-5.343675220023989823e+04
-5.343647931263920327e+04
-5.343654221257079917e+04
-5.343713424930279871e+04
-5.343681524398369947e+04
-5.343687190039920097e+04
-5.343692179913940345e+04
-5.343665317365789815e+04
-5.343654164534949814e+04
-5.343592031950769888e+04
-5.343597101472519716e+04
-5.343673108611030329e+04
-5.343659648050700343e+04
-5.343565946396489744e+04
-5.343683126536659984e+04
-5.343696921116729936e+04
-5.343634650747710111e+04
-5.343704609149199678e+04
-5.343636853849430190e+04
-5.343728894806450262e+04
-5.343681187630270142e+04
-5.343694656054690131e+04
-5.343541446844139864e+04
-5.343698720496740134e+04
-5.343634459955090279e+04
-5.343669334460030223e+04
-5.343668354428409657e+04
-5.343601179737949860e+04
-5.343637935991770064e+04
-5.343576025330040284e+04
-5.343620799404689751e+04
-5.343611801824349823e+04
-5.343706168293499650e+04
-5.343663767500570248e+04
-5.343609690275329922e+04
-5.343718243699119921e+04
-5.343658540152789647e+04
-5.343704691953439760e+04
-5.343578662997570063e+04
-5.343692823612850043e+04
-5.343717979041190119e+04
-5.343645806911950058e+04
-5.343650620714709657e+04
-5.343657676885220280e+04
-5.343703607171600015e+04
-5.343655891083690221e+04
-5.343593619830300304e+04
-5.343606085011790128e+04
-5.343646315832860273e+04
-5.343707266381710360e+04
