1.990180000000000005e-01 -2.775480000000000169e-01 -1.497435000000000072e+00 7.958690000000000486e-01 3.452500000000000013e-02 -5.237610000000000321e-01 -3.568319999999999825e-01 -3.427040000000000086e-01 -1.006364000000000036e+00 -3.669299999999999784e-01 -4.147999999999999778e-03 -1.745029999999999915e-01 4.826650000000000107e-01 -5.148350000000000426e-01 -4.635750000000000148e-01 7.651520000000000543e-01 -2.603710000000000191e-01 8.157300000000000662e-02 -5.919299999999999562e-01 -7.718209999999999793e-01 -4.697959999999999914e-01 1.045809999999999906e+00 1.579828999999999928e+00 -1.326576999999999895e+00 1.227710000000000051e-01 6.530989999999999851e-01 -3.899489999999999901e-01 -1.328594999999999970e+00 3.790959999999999885e-01 9.223499999999999754e-02 -1.151764000000000010e+00 -6.112739999999999840e-01 4.448050000000000059e-01 -4.931429999999999980e-01 3.102099999999999996e-02 -5.014170000000000016e-01 5.084830000000000183e-01 -9.835289999999999866e-01 -6.934390000000000276e-01 5.820610000000000506e-01 -7.539369999999999683e-01 -3.831950000000000078e-01 1.466353999999999935e+00 -5.681199999999999584e-01 7.530710000000000459e-01 4.092709999999999959e-01 2.148470000000000102e-01 9.148669999999999858e-01 -5.774390000000000356e-01 8.885469999999999757e-01 5.685329999999999551e-01 2.303540000000000032e-01 -6.563579999999999970e-01 -1.899278999999999940e+00 4.265709999999999780e-01 5.443789999999999463e-01 1.436089999999999867e-01 -4.763129999999999864e-01 -5.357800000000000062e-02 9.399999999999999467e-01 3.131909999999999972e-01 -1.152274000000000020e+00 4.822089999999999987e-01 8.539740000000000109e-01 1.763589999999999880e-01 5.089909999999999712e-01 -7.308400000000000452e-01 9.562829999999999941e-01 9.327060000000000350e-01 2.311789999999999956e-01 -1.324913999999999925e+00 3.077790000000000248e-01 -1.049968000000000012e+00 -5.405999999999999694e-02 5.813009999999999566e-01 6.076150000000000162e-01 2.047539999999999916e-01 5.661589999999999678e-01 -9.925659999999999483e-01 1.185713000000000017e+00 -8.253499999999999726e-02 -5.716189999999999882e-01 3.906060000000000088e-01 -1.121800000000000019e-01 -3.870029999999999859e-01 1.271738000000000035e+00 7.200579999999999758e-01 -3.497160000000000268e-01 -3.628009999999999846e-01 1.295152000000000081e+00 -6.718000000000000360e-02 2.084239999999999982e-01 -5.526050000000000129e-01 4.515000000000000124e-01 -2.695000000000000173e-02 7.435619999999999452e-01
-4.084800000000000236e-02 -1.120150000000000035e-01 7.996459999999999679e-01 8.317759999999999598e-01 5.175650000000000528e-01 7.050450000000000328e-01 3.123770000000000158e-01 5.176700000000000051e-02 -8.984699999999999631e-02 -2.480269999999999975e-01 -4.906400000000000206e-01 9.653140000000000054e-01 -4.142799999999999816e-01 2.665390000000000259e-01 -7.652510000000000145e-01 -9.158900000000000374e-02 -1.951060000000000016e-01 -2.897299999999999875e-01 8.460029999999999495e-01 -6.900699999999999890e-02 -2.246730000000000116e-01 -2.883249999999999980e-01 2.059330000000000049e-01 1.665179999999999993e-01 3.108999999999999785e-03 5.628729999999999567e-01 -5.872519999999999962e-01 -1.247981000000000007e+00 1.336284000000000027e+00 3.796570000000000222e-01 -7.525500000000000245e-02 4.989910000000000179e-01 -5.003830000000000222e-01 -9.238140000000000240e-01 -4.375899999999999790e-01 1.674319999999999975e-01 4.530219999999999803e-01 -2.138069999999999971e-01 9.555700000000000305e-02 -2.591959999999999820e-01 -3.419579999999999842e-01 2.886000000000000232e-01 -1.093590000000000062e+00 -1.389748999999999901e+00 3.547700000000000159e-02 1.234596999999999944e+00 1.132211000000000078e+00 5.770999999999999741e-02 -2.082489999999999897e-01 1.290779999999999983e-01 -1.500094000000000038e+00 -7.402670000000000083e-01 -6.061849999999999739e-01 4.349250000000000060e-01 -1.311940000000000051e-01 -3.147289999999999810e-01 -7.643959999999999644e-01 3.351029999999999842e-01 -4.152299999999999741e-02 -9.057939999999999880e-01 -2.698650000000000215e-01 3.368200000000000083e-01 6.242769999999999708e-01 -4.753200000000000203e-01 -2.042509999999999881e-01 -4.160150000000000237e-01 7.009149999999999547e-01 -1.069879999999999998e-01 7.480590000000000295e-01 9.956679999999999975e-01 -7.634769999999999612e-01 -7.373119999999999674e-01 2.845599999999999796e-01 1.481643999999999961e+00 3.155160000000000187e-01 1.447327999999999948e+00 -5.138639999999999874e-01 -1.081850000000000034e-01 -8.942029999999999701e-01 -4.858799999999999786e-01 -2.973040000000000127e-01 -1.578980000000000106e-01 -8.099129999999999940e-01 1.248999999999999937e-02 6.930030000000000356e-01 5.408300000000000329e-01 9.100899999999999546e-01 1.397490000000000121e-01 -1.093266999999999989e+00 4.663400000000000184e-02 -1.973799999999999999e-01 9.775679999999999925e-01 3.868059999999999832e-01 -5.199289999999999745e-01 1.518450000000000077e-01 4.648599999999999954e-02
-5.599699999999999817e-02 7.169360000000000177e-01 3.081090000000000217e-01 -6.496729999999999450e-01 -3.576219999999999954e-01 5.474339999999999762e-01 5.862460000000000448e-01 4.787109999999999976e-01 3.517810000000000104e-01 3.873219999999999996e-01 -4.479929999999999746e-01 -6.655950000000000477e-01 -1.914909999999999946e-01 6.035909999999999886e-01 -8.736629999999999674e-01 -5.176680000000000170e-01 8.659339999999999815e-01 3.380070000000000019e-01 -2.418879999999999919e-01 -1.090859000000000023e+00 -4.416910000000000003e-01 8.316590000000000371e-01 5.446579999999999755e-01 3.060550000000000215e-01 1.429942000000000046e+00 -1.494060000000000110e-01 1.288335999999999926e+00 -7.272039999999999615e-01 8.581790000000000251e-01 2.751210000000000044e-01 -1.394295999999999980e+00 8.311060000000000114e-01 -1.422130000000000061e-01 -4.676589999999999914e-01 -7.449919999999999876e-01 2.720589999999999953e-01 -3.544979999999999798e-01 6.316110000000000335e-01 -1.092550000000000049e-01 1.184280999999999917e+00 3.955700000000000188e-02 -2.377940000000000054e-01 5.201540000000000052e-01 1.369049999999999989e-01 -9.896519999999999762e-01 -9.170239999999999503e-01 -5.554289999999999505e-01 -6.741089999999999582e-01 -2.709759999999999946e-01 -5.372219999999999773e-01 -6.502590000000000314e-01 -1.826029999999999875e-01 2.145209999999999895e-01 5.780330000000000190e-01 7.957610000000000516e-01 -7.474220000000000308e-01 -2.373369999999999924e-01 4.882210000000000161e-01 -3.158420000000000116e-01 9.429300000000000459e-01 -5.671559999999999935e-01 -5.968529999999999669e-01 1.485059999999999991e-01 4.276490000000000014e-01 -2.908720000000000194e-01 5.127439999999999776e-01 1.092110000000000025e-01 5.465809999999999835e-01 1.033789999999999987e-01 -3.803500000000000214e-01 -1.074016999999999999e+00 -3.537400000000000266e-02 4.922340000000000049e-01 -2.303320000000000090e-01 -4.908500000000000085e-01 1.523239999999999872e-01 3.788969999999999838e-01 -7.462900000000000089e-02 -1.015370000000000106e+00 -5.375619999999999843e-01 -1.067404999999999937e+00 1.697009999999999907e-01 -1.444989999999999886e-01 9.419399999999999995e-01 1.403289999999999926e+00 4.156349999999999767e-01 -1.768339999999999912e-01 -1.157470999999999917e+00 6.191599999999999882e-02 -2.495940000000000103e-01 4.779590000000000227e-01 6.008400000000000407e-01 1.903189999999999882e-01 -3.646300000000000097e-01 -1.046549999999999980e-01 1.149799999999999954e-02
7.204599999999999893e-01 8.756400000000000294e-02 -1.006810999999999900e+00 4.701099999999999723e-01 -7.630369999999999653e-01 -5.853209999999999802e-01 2.975519999999999832e-01 -4.166799999999999948e-01 1.237514999999999921e+00 -1.311546000000000101e+00 -2.205030000000000046e-01 9.318830000000000169e-01 -1.173934000000000033e+00 -1.195500999999999925e+00 1.020189999999999986e-01 1.313263999999999987e+00 2.217541000000000206e+00 -4.181499999999999800e-02 4.077879999999999838e-01 3.337939999999999796e-01 -4.133209999999999940e-01 -3.397290000000000032e-01 -4.938779999999999837e-01 3.298170000000000268e-01 -6.243069999999999453e-01 -1.051500000000000004e-02 1.020461000000000062e+00 -2.789679999999999938e-01 -1.680290000000000117e-01 3.901029999999999776e-01 1.138229999999999936e-01 2.399820000000000009e-01 -3.672190000000000176e-01 -4.450669999999999904e-01 -7.077400000000000357e-01 3.724759999999999738e-01 -1.530930000000000069e-01 3.267920000000000269e-01 4.717999999999999972e-01 -1.765363000000000016e+00 -1.525033000000000083e+00 -1.837670000000000137e-01 2.537739999999999996e-01 -3.716999999999999818e-03 -8.137980000000000214e-01 6.976849999999999996e-01 7.633739999999999970e-01 -1.168296999999999919e+00 -5.459420000000000384e-01 7.169259999999999522e-01 3.416150000000000020e-01 -7.928799999999999737e-02 1.117734000000000005e+00 1.948560000000000014e-01 -8.268689999999999651e-01 -4.000940000000000052e-01 -1.136282000000000014e+00 -9.935800000000000187e-02 -4.139799999999999730e-02 -6.369200000000000417e-01 1.492412999999999990e+00 1.670976000000000017e+00 -9.231489999999999974e-01 -3.557250000000000134e-01 -5.982279999999999820e-01 5.239589999999999526e-01 3.402569999999999761e-01 -3.723730000000000095e-01 -6.679999999999999827e-02 -2.916009999999999991e-01 -9.052980000000000471e-01 -6.462499999999999911e-01 -2.231809999999999905e-01 1.626259999999999928e-01 -1.116071000000000035e+00 3.620840000000000169e-01 -3.851280000000000259e-01 -4.135440000000000227e-01 1.142929000000000084e+00 -9.453599999999999504e-02 -6.025390000000000468e-01 -1.015009999999999940e-01 -3.636249999999999760e-01 5.443649999999999878e-01 5.496870000000000367e-01 9.013599999999999390e-02 6.672069999999999945e-01 -2.338480000000000003e-01 4.624840000000000062e-01 1.831917999999999935e+00 -2.219569999999999876e-01 2.941070000000000073e-01 5.170850000000000168e-01 9.094499999999999806e-01 1.812769999999999937e-01 6.448239999999999528e-01
-5.896970000000000267e-01 -8.850249999999999506e-01 1.019371000000000027e+00 -1.045998999999999901e+00 -2.579330000000000234e-01 2.673539999999999806e-01 1.422212999999999949e+00 -1.162429999999999991e-01 4.325809999999999933e-01 5.277819999999999734e-01 -2.504020000000000135e-01 5.959050000000000180e-01 -7.985780000000000101e-01 2.744659999999999878e-01 -1.589099999999999888e-02 1.424771999999999927e+00 -2.654290000000000260e-01 4.195300000000000140e-01 -5.046530000000000182e-01 -2.002240000000000131e-01 -8.551649999999999530e-01 5.488920000000000465e-01 -3.139170000000000016e-01 -7.251809999999999645e-01 1.436699999999999922e-01 -1.037170000000000036e-01 -7.064040000000000319e-01 9.037699999999999900e-02 -5.087810000000000388e-01 -3.035490000000000133e-01 6.482069999999999776e-01 1.720315999999999956e+00 -2.849280000000000146e-01 5.855339999999999989e-01 -1.177084999999999937e+00 -1.416840000000000044e-01 -2.707069999999999754e-01 -1.289147000000000043e+00 -5.111820000000000253e-01 1.778359999999999941e-01 7.791470000000000340e-01 -2.712519999999999931e-01 -3.186930000000000041e-01 -5.699499999999999705e-02 -3.199469999999999814e-01 2.985340000000000216e-01 -2.236199999999999993e-02 1.608130000000000115e-01 4.418739999999999890e-01 -2.774309999999999832e-01 5.948970000000000091e-01 -6.928029999999999466e-01 8.374070000000000125e-01 3.852940000000000254e-01 -3.237700000000000300e-02 -1.154328000000000021e+00 3.625619999999999954e-01 4.633500000000000119e-02 2.988660000000000205e-01 9.357000000000000040e-02 8.590849999999999875e-01 -2.231470000000000120e-01 1.514230000000000020e-01 1.914480000000000071e-01 7.441010000000000124e-01 -1.448682999999999943e+00 -3.673690000000000011e-01 1.068217999999999890e+00 -1.782509999999999928e-01 -9.310680000000000067e-01 4.564949999999999841e-01 2.874929999999999986e-01 4.516760000000000219e-01 -9.062919999999999865e-01 -1.871369999999999978e-01 8.146499999999999575e-02 -2.491770000000000096e-01 9.549560000000000271e-01 2.646950000000000136e-01 5.394349999999999978e-01 -6.057400000000000284e-02 -6.155000000000000054e-02 -2.768019999999999925e-01 -1.667805999999999900e+00 -1.205446000000000017e+00 7.821660000000000279e-01 8.066159999999999997e-01 -8.371020000000000127e-01 3.104319999999999857e-01 5.867719999999999603e-01 -1.129950000000000010e+00 -3.088940000000000019e-01 4.439210000000000100e-01 5.815960000000000019e-01 1.032281000000000004e+00 1.145710000000000062e-01
2.994640000000000080e-01 -1.935320000000000096e-01 -2.847200000000000078e-02 -6.599589999999999623e-01 5.752709999999999768e-01 5.283299999999999663e-01 -9.882800000000000473e-01 -1.047028000000000070e+00 1.017789999999999973e+00 -1.194410000000000055e-01 -5.642979999999999663e-01 5.819180000000000463e-01 3.644450000000000189e-01 8.571159999999999890e-01 8.766519999999999868e-01 -3.245629999999999904e-01 -7.547139999999999960e-01 7.384799999999999698e-02 6.315180000000000238e-01 2.753999999999999938e-03 -1.134560000000000013e-01 1.448919999999999930e-01 3.204870000000000219e-01 6.813850000000000184e-01 -9.273599999999999899e-02 4.705639999999999823e-01 -9.190439999999999721e-01 2.615100000000000063e-02 -2.642780000000000129e-01 -6.109550000000000258e-01 -1.339031000000000082e+00 -3.506000000000000227e-01 -7.908840000000000314e-01 4.788589999999999791e-01 -1.685730000000000006e-01 -5.332679999999999643e-01 1.401070000000000093e-01 1.398093999999999948e+00 -3.648089999999999944e-01 -2.628730000000000233e-01 4.336900000000000199e-01 3.433499999999999747e-02 1.208237000000000005e+00 2.268779999999999963e-01 2.233799999999999952e-01 4.399660000000000237e-01 2.398190000000000044e-01 -5.995679999999999898e-01 1.741699999999999915e-01 -1.673189999999999955e-01 1.122754000000000030e+00 -6.589409999999999989e-01 -1.531790000000000096e-01 -1.705760000000000054e-01 -2.343959999999999932e-01 -3.468990000000000129e-01 -6.448720000000000008e-01 1.566384999999999916e+00 3.463789999999999925e-01 -3.877769999999999828e-01 -4.039559999999999818e-01 -1.032056000000000084e+00 -3.924469999999999903e-01 -4.943999999999999784e-02 6.240569999999999729e-01 -1.283090999999999982e+00 -2.009050000000000002e-01 1.847139999999999893e-01 -9.542049999999999699e-01 8.588500000000000023e-01 -2.996369999999999867e-01 -1.415871000000000102e+00 -4.155499999999999750e-01 -3.991270000000000095e-01 7.359890000000000043e-01 1.020262999999999920e+00 5.323820000000000219e-01 4.762120000000000242e-01 -2.617229999999999834e-01 -1.053306000000000076e+00 1.596373999999999960e+00 -1.642160000000000009e-01 3.740359999999999796e-01 -1.549999999999999946e-03 -4.277210000000000178e-01 1.473460000000000047e-01 9.897200000000000442e-02 -1.128125999999999962e+00 -1.074910000000000032e-01 3.864560000000000217e-01 9.524599999999999733e-02 4.418219999999999925e-01 1.785899999999999987e-01 2.833040000000000003e-01 -2.733720000000000039e-01 5.978620000000000045e-01
3.291060000000000096e-01 -2.820559999999999734e-01 -8.289000000000000534e-02 -7.027400000000000313e-02 -2.044199999999999837e-02 1.499694000000000083e+00 -1.876158999999999910e+00 9.766569999999999974e-01 -1.581013999999999919e+00 1.677949999999999997e-01 -2.879650000000000265e-01 -1.520000000000000084e-03 -1.244447000000000081e+00 2.065875000000000128e+00 8.926150000000000473e-01 -7.890589999999999549e-01 2.369100000000000095e-01 1.086608000000000018e+00 9.844270000000000520e-01 1.039429999999999937e-01 7.289050000000000251e-01 -4.151179999999999870e-01 3.368050000000000210e-01 -6.520369999999999777e-01 -7.429199999999999693e-02 -5.617990000000000483e-01 -3.609689999999999843e-01 -1.404870000000000008e-01 7.398670000000000524e-01 -4.367800000000000155e-02 4.221779999999999977e-01 -4.354899999999999743e-02 -1.030390000000000056e-01 2.946750000000000203e-01 -5.110710000000000530e-01 -8.074890000000000123e-01 -9.896369999999999889e-01 -6.447739999999999583e-01 8.427850000000000064e-01 4.600000000000000200e-01 7.426319999999999588e-01 -3.180620000000000114e-01 -1.613749999999999907e-01 1.269738999999999951e+00 -5.433470000000000244e-01 -4.859600000000000031e-02 3.250589999999999868e-01 4.348000000000000302e-03 1.380225000000000035e+00 -4.451060000000000016e-01 -6.521519999999999539e-01 6.501590000000000424e-01 -1.069201000000000068e+00 -3.088000000000000033e-03 1.736833000000000071e+00 -1.772024999999999961e+00 9.631969999999999699e-01 -3.769839999999999858e-01 -5.758130000000000193e-01 4.817150000000000043e-01 -8.809949999999999726e-01 -3.479180000000000050e-01 -1.051992999999999956e+00 -2.619310000000000249e-01 1.225629000000000079e+00 -1.126039999999999930e+00 -1.518318999999999974e+00 -1.074620000000000020e-01 -2.126580000000000137e-01 -6.520880000000000010e-01 5.915510000000000490e-01 -1.834848999999999952e+00 3.104300000000000115e-02 -9.002139999999999587e-01 1.302335000000000020e+00 1.358900000000000108e-01 -6.153650000000000508e-01 5.536560000000000370e-01 -1.441392999999999924e+00 3.857869999999999910e-01 -8.428400000000000336e-01 1.550022999999999929e+00 -1.030807999999999947e+00 5.806529999999999747e-01 6.237160000000000482e-01 -1.034987000000000101e+00 4.082129999999999925e-01 2.077930000000000055e-01 8.039589999999999792e-01 9.756439999999999557e-01 1.285927000000000042e+00 -1.988439999999999930e-01 9.674300000000000122e-01 6.813649999999999984e-01 6.449880000000000058e-01 -1.070132000000000083e+00
8.247299999999999631e-01 -2.212230000000000030e-01 -1.853364000000000011e+00 -4.010889999999999733e-01 -6.999319999999999986e-01 2.862750000000000017e-01 -1.194920000000000010e-01 1.573565000000000103e+00 8.871830000000000549e-01 1.400771999999999906e+00 -1.557566999999999924e+00 -7.973879999999999857e-01 7.253910000000000080e-01 4.322779999999999956e-01 6.686520000000000241e-01 7.399329999999999519e-01 2.591680999999999901e+00 -2.826789999999999914e+00 -4.781340000000000034e-01 5.787069999999999714e-01 1.014319999999999944e-01 -1.062389999999999946e+00 -1.616392999999999969e+00 -1.905070000000000097e-01 3.250089999999999923e-01 -1.589611000000000107e+00 2.331462999999999841e+00 5.928440000000000376e-01 -7.003700000000000481e-01 -7.541630000000000278e-01 -1.710730000000000028e-01 9.129099999999999715e-02 2.228970000000000118e-01 -2.078299999999999939e-02 8.213600000000000068e-02 -3.478729999999999878e-01 -1.194100000000000023e-01 -4.923179999999999779e-01 -5.396969999999999823e-01 -1.569429999999999992e-01 -2.985809999999999853e-01 1.083419999999999939e-01 3.675889999999999991e-01 4.524639999999999773e-01 -1.276760000000000117e-01 7.009480000000000155e-01 -4.036469999999999780e-01 2.325780000000000070e-01 -7.894800000000000428e-02 -2.711620000000000141e-01 4.513909999999999867e-01 3.378199999999999953e-02 1.467559999999999976e-01 1.279859999999999887e-01 -3.767530000000000046e-01 -6.552449999999999664e-01 -3.226620000000000044e-01 -1.664579999999999949e-01 -2.535990000000000189e-01 1.843455999999999984e+00 -1.748248000000000024e+00 -5.999189999999999801e-01 4.494870000000000254e-01 1.932879999999999876e-01 8.622929999999999762e-01 -1.642699999999999994e-01 -8.000799999999999579e-02 2.898040000000000060e-01 4.673000000000000070e-03 -2.781359999999999943e-01 1.349849000000000077e+00 6.103189999999999449e-01 -1.270419999999999883e-01 -6.076420000000000154e-01 6.967199999999999782e-02 7.335300000000000153e-02 2.563750000000000195e-01 -2.449409999999999921e-01 1.173809999999999992e-01 5.282879999999999798e-01 -4.311999999999999861e-02 9.328200000000000380e-02 -1.192349999999999938e-01 4.709650000000000225e-01 -2.524179999999999757e-01 -7.220609999999999529e-01 -6.164269999999999472e-01 -1.236499999999999926e-02 4.262239999999999918e-01 5.352860000000000396e-01 2.619520000000000182e-01 7.047470000000000123e-01 -8.809369999999999701e-01 -8.005640000000000533e-01 4.420470000000000232e-01 3.077559999999999740e-01
-5.449950000000000072e-01 -1.730690000000000006e-01 -1.687559999999999893e-01 1.044677999999999995e+00 7.215169999999999639e-01 1.362649999999999972e-01 3.908869999999999845e-01 -1.191281999999999952e+00 -2.382039999999999991e-01 -4.500600000000000156e-01 1.447900000000000055e-02 4.187879999999999936e-01 -4.604969999999999897e-01 -2.590290000000000092e-01 6.354009999999999936e-01 -1.020184999999999897e+00 2.014473999999999876e+00 8.034040000000000070e-01 8.579459999999999864e-01 1.912760000000000016e-01 7.753200000000000369e-02 7.288400000000000434e-02 -1.261980000000000046e-01 -5.367790000000000061e-01 4.065940000000000110e-01 4.632899999999999796e-01 1.246780999999999917e+00 3.352229999999999932e-01 7.701080000000000148e-01 4.614190000000000236e-01 -6.078620000000000134e-01 -6.115620000000000500e-01 1.410990000000000022e-01 2.046989999999999921e-01 -1.950060000000000127e-01 1.170599999999999939e-02 2.270850000000000091e-01 6.567800000000000027e-02 -6.134140000000000148e-01 -1.163699999999999957e+00 -8.571000000000000493e-03 -1.591680000000000039e-01 -3.906470000000000220e-01 1.384209999999999885e-01 -2.677820000000000200e-01 1.151856999999999909e+00 8.110190000000000454e-01 5.758689999999999642e-01 -1.307989999999999986e+00 6.933219999999999938e-01 2.570990000000000220e-01 2.387900000000000023e-01 -5.482150000000000079e-01 1.997039999999999926e-01 5.744310000000000249e-01 -9.640649999999999498e-01 -1.121810000000000029e-01 4.086899999999999977e-01 -8.043169999999999487e-01 1.313300000000000058e-02 4.162540000000000129e-01 1.495559999999999945e-01 1.995399999999999952e-02 2.212850000000000095e-01 -7.240099999999999314e-02 -3.224029999999999951e-01 -8.870799999999999519e-02 5.269800000000000040e-01 -3.460659999999999847e-01 -5.491369999999999862e-01 3.877099999999999991e-02 5.540159999999999529e-01 8.588099999999999623e-01 -5.848130000000000273e-01 2.747829999999999995e-01 -1.806339999999999890e-01 -1.166750000000000009e-01 8.975299999999999945e-02 -9.481789999999999941e-01 2.777549999999999741e-01 -5.708809999999999718e-01 6.661439999999999584e-01 -4.494890000000000274e-01 -3.350230000000000152e-01 -3.154799999999999965e-02 2.015780000000000072e-01 -4.079980000000000273e-01 -9.970700000000000396e-02 -4.050630000000000064e-01 7.008780000000000010e-01 -4.023149999999999782e-01 5.378190000000000470e-01 -4.207270000000000176e-01 1.699110000000000065e-01 -1.106287000000000020e+00 -2.118203999999999976e+00
4.580089999999999995e-01 7.078649999999999665e-01 3.216620000000000035e-01 1.027452000000000032e+00 -1.821510000000000074e-01 1.194770000000000110e+00 -7.562240000000000073e-01 -4.594309999999999783e-01 -7.546669999999999767e-01 1.537179999999999935e-01 -3.388900000000000245e-01 -4.704679999999999973e-01 -5.658980000000000121e-01 -3.976160000000000250e-01 3.795500000000000262e-02 1.459119999999999862e-01 1.069932000000000105e+00 1.915600000000000080e-01 8.480720000000000480e-01 2.743699999999999958e-02 8.945309999999999651e-01 5.397880000000000456e-01 -3.505599999999999689e-02 2.667490000000000139e-01 1.506329999999999891e-01 8.759890000000000176e-01 -1.811754000000000087e+00 -3.999139999999999917e-01 -7.285600000000000409e-02 7.391199999999999992e-01 7.218510000000000204e-01 -6.743580000000000130e-01 -1.057465000000000099e+00 -4.855960000000000276e-01 4.494949999999999779e-01 4.146739999999999871e-01 -2.754670000000000174e-01 1.523299999999999932e-01 -2.988089999999999913e-01 -9.239910000000000068e-01 -7.978699999999999681e-02 -9.369490000000000318e-01 7.127350000000000074e-01 -1.545539999999999969e-01 -1.728860000000000119e-01 5.340999999999999914e-02 -1.289865000000000039e+00 2.323860000000000092e-01 1.102281999999999984e+00 -5.791500000000000536e-01 -4.884950000000000125e-01 -4.630960000000000076e-01 6.362299999999999622e-01 -1.113874000000000031e+00 3.434639999999999915e-01 3.283389999999999920e-01 -5.190630000000000521e-01 8.135850000000000026e-01 1.480539999999999912e-01 2.825820999999999916e+00 7.484200000000000574e-02 -3.055680000000000063e-01 1.395942999999999934e+00 3.876089999999999813e-01 -4.709869999999999890e-01 7.565570000000000350e-01 -1.277239999999999931e+00 -2.813399999999999929e-02 4.066049999999999942e-01 -4.946369999999999933e-01 1.242636000000000074e+00 -2.562519999999999798e-01 2.318620000000000125e-01 4.788689999999999891e-01 -3.080399999999999805e-01 -6.443969999999999976e-01 7.278639999999999555e-01 1.128610000000000030e-01 -1.067925999999999931e+00 -6.237230000000000274e-01 7.607969999999999455e-01 3.606999999999999790e-02 -2.586249999999999938e-01 4.327000000000000117e-03 1.507139999999999869e-01 4.230289999999999884e-01 -3.817090000000000205e-01 -5.410740000000000549e-01 -3.746200000000000085e-01 -9.078049999999999731e-01 1.087520999999999960e+00 -9.828200000000000269e-01 -2.708169999999999744e-01 -1.144071000000000060e+00 4.012299999999999894e-02 -8.072639999999999816e-01
5.030350000000000099e-01 2.664830000000000254e-01 1.283665999999999974e+00 4.533000000000000224e-02 1.174999999999999933e-01 -9.159249999999999892e-01 1.120829999999999993e+00 -7.807359999999999856e-01 -1.943090000000000095e-01 4.317099999999999826e-01 9.828869999999999552e-01 -9.159479999999999844e-01 -7.156420000000000003e-01 2.833479999999999888e-01 3.453450000000000131e-01 4.038019999999999943e-01 -6.686290000000000289e-01 -6.926769999999999872e-01 -1.791679999999999939e-01 -1.632123999999999908e+00 -2.537849999999999828e-01 2.185300000000000090e-02 -6.095270000000000410e-01 -2.856400000000000050e-01 -3.204929999999999723e-01 1.597429999999999961e-01 3.650799999999999879e-02 9.477229999999999821e-01 1.004669999999999952e+00 1.909760000000000069e-01 7.041889999999999539e-01 -4.597019999999999995e-01 9.872599999999999432e-02 -1.471613000000000060e+00 6.788459999999999495e-01 -3.872099999999999848e-02 -6.877889999999999837e-01 1.398089999999999888e-01 4.079079999999999928e-01 -1.703176999999999941e+00 8.436590000000000478e-01 8.105560000000000542e-01 -1.692460000000000075e-01 -1.158760000000000068e-01 -3.915890000000000204e-01 3.584099999999999786e-02 7.452060000000000350e-01 1.659146999999999927e+00 8.266120000000000134e-01 -5.300770000000000204e-01 5.185269999999999602e-01 -1.385207000000000077e+00 1.039028000000000063e+00 -4.757020000000000137e-01 4.803199999999999831e-02 -4.697120000000000184e-01 6.523919999999999719e-01 6.674930000000000030e-01 1.631740000000000135e-01 -7.604119999999999768e-01 1.247206999999999955e+00 -9.452690000000000259e-01 -1.389801000000000064e+00 1.315119999999999900e-01 -7.336970000000000436e-01 -6.478789999999999827e-01 -5.955099999999999838e-01 8.531940000000000079e-01 -2.854780000000000095e-01 8.413690000000000335e-01 6.238719999999999821e-01 1.551800000000000124e-01 -5.071170000000000400e-01 -3.308229999999999782e-01 6.125739999999999519e-01 3.965179999999999816e-01 -5.303550000000000209e-01 5.953009999999999691e-01 1.030014999999999903e+00 -2.512820000000000054e-01 -2.633100000000000024e-02 8.098400000000000043e-02 -7.303530000000000300e-01 -2.487899999999999834e-02 -4.064260000000000095e-01 -2.964689999999999825e-01 -6.732089999999999463e-01 4.373449999999999838e-01 2.011360000000000092e-01 1.278859999999999997e-01 -8.936100000000000154e-01 1.060961999999999961e+00 4.128709999999999880e-01 -8.864039999999999697e-01 -7.888900000000000079e-02 6.472200000000000175e-02
1.661380000000000079e-01 2.941889999999999783e-01 -1.929639999999999966e-01 -8.117299999999999516e-01 7.450099999999999500e-01 5.227270000000000527e-01 6.242100000000000426e-01 4.960910000000000042e-01 1.032648000000000010e+00 7.693899999999999351e-02 2.934320000000000261e-01 9.775709999999999678e-01 -3.968690000000000273e-01 -5.503869999999999596e-01 2.402549999999999963e-01 4.215800000000000103e-01 6.509500000000000286e-01 7.211070000000000535e-01 9.524799999999999933e-02 1.120557000000000025e+00 3.474010000000000153e-01 -4.308219999999999827e-01 -8.467270000000000074e-01 -5.833450000000000024e-01 1.052477000000000107e+00 3.647099999999999786e-01 -1.228489999999999999e-01 -7.464619999999999589e-01 1.381040000000000045e-01 2.758209999999999829e-01 -1.377042000000000099e+00 7.874400000000000288e-01 -1.330381000000000036e+00 2.491990000000000038e-01 -3.536940000000000084e-01 5.261289999999999578e-01 1.560940000000000105e-01 5.464849999999999985e-01 -4.974999999999999978e-01 -7.041800000000000281e-01 -1.266169000000000100e+00 3.391890000000000183e-01 -1.012961000000000000e+00 9.970240000000000213e-01 2.775639999999999774e-01 -1.082621000000000056e+00 2.419280000000000042e-01 5.248639999999999972e-01 -1.571220000000000117e-01 8.736829999999999874e-01 -9.929120000000000168e-01 -3.512799999999999812e-01 5.950659999999999838e-01 5.345229999999999704e-01 3.709629999999999872e-01 -6.550639999999999796e-01 -4.702479999999999993e-01 1.614163000000000014e+00 -9.792729999999999491e-01 8.983480000000000354e-01 2.717780000000000196e-01 -7.529369999999999674e-01 -9.160899999999999599e-02 7.439249999999999474e-01 -4.819019999999999970e-01 -9.042790000000000550e-01 9.349499999999999478e-02 -5.825179999999999803e-01 -6.955249999999999488e-01 -1.622869999999999868e-01 3.274150000000000116e-01 5.763540000000000330e-01 1.315905000000000102e+00 -5.052619999999999889e-01 -4.009750000000000258e-01 -2.388699999999999851e-02 -9.190509999999999513e-01 -5.001649999999999707e-01 4.845949999999999980e-01 6.510299999999999421e-02 9.151099999999999790e-01 -9.652979999999999894e-01 -4.375229999999999952e-01 5.542019999999999724e-01 7.333739999999999704e-01 1.848160000000000081e-01 -5.195180000000000353e-01 4.181730000000000169e-01 3.502569999999999850e-01 -8.313500000000000056e-02 -8.475960000000000161e-01 5.142560000000000464e-01 -9.363270000000000204e-01 1.819030000000000091e-01 -1.256013000000000046e+00 -9.420800000000000285e-01