-0.161912 0.344643 0.553798 0.923766 -1.147673 0.097318 -0.642578 -0.397368 -0.548875 -0.086630 -0.755519 0.860084 0.030461 0.488439 -0.696502 -1.195367 -0.072837 -0.050088 0.204922 -0.017653 -0.150999 -0.030640 -0.007118 0.053948 0.720869 -0.002230 0.645229 0.639341 -0.711902 -0.160528 1.201763 -0.724786 -0.535402 -0.428399 0.398247 -0.234637 -0.176982 -0.212749 0.570081 -0.164489 -0.366288 1.585162 0.233917 0.202764 -0.488575 -0.031915 -0.029626 -0.745382 0.039807 0.457396 -0.053536 -0.485446 0.435205 -0.032158 0.615346 -0.276548 0.726369 0.882151 -1.243830 0.239090 -0.297581 0.006902 0.515415 0.448472 0.918826 0.640005 -0.061018 -0.098185 -0.095347 0.033771 0.065756 -0.379850 -0.614748 -0.272618 -0.340740 0.575849 -0.992488 0.202520 0.239012 0.413395 0.226161 -0.786337 -0.063538 0.037018 -0.085514 -0.223923 -0.261297 0.503681 -0.466399 -0.812827 0.139341 -0.230329 0.026376 0.011988 -0.003964 0.127296 0.096988 -0.726001 0.373218 0.695550 0.168414 -0.725620 -0.190835 -0.207106 -0.710776 0.249309 0.253096 0.522577 0.439364 -0.251571 -0.014435 0.329077 -0.121102 0.455651 0.093735 0.073009 0.040051 0.003489 -0.016613 -0.099179 0.327651 1.223625 1.037041 -1.084389 -0.890261 -0.746929 -0.456033 -1.171037 -0.244181 0.275653 0.248020 -0.114826 -0.553005 -0.355722 -0.309698 0.689139 -0.244647 0.593536 0.193393 -0.027157 0.117890 0.036154 0.003394 -0.124441 0.108707 -0.744396 -0.135329 -0.360191 -0.486187 0.313444 -0.472790 0.278970 0.298741 -0.871501 0.232410 -0.842719 0.921028 -0.156782 -0.657572 0.261310 0.846942 -0.498644 0.148909 -0.286653 0.123462 0.011185 0.013675 0.134974 0.182342 0.361241 0.762798 -0.320190 -0.087335 -0.867390 0.187617 -0.024377 -0.248545 -0.862121 0.519730 0.271056 0.394150 0.900698 0.103054 -0.658012 0.511056 0.160389 0.119640 -0.146037 0.085143 -0.017634 0.008879 -0.100477 0.256726 0.955777 0.390708 -0.586964 -0.723922 -0.246131 1.250500 0.636917 0.097216 -1.153956 -0.114987 -0.190974 -1.129494 0.716970 -0.748463 -0.349722 0.211526 0.254706 0.184668 -0.139322 -0.026092 -0.011872 -0.021199 0.005242 -1.053647 0.426817 0.286060 1.019723 -0.058093 -0.524755 -0.239786 -0.667272 1.113498 -0.174248 -0.370999 0.365646 0.566999 -0.536977 -1.070027 -0.302495 0.500806 0.222529 -0.090600 -0.224367 0.097538 0.006982 0.036649 0.034130 -0.247867 -0.153175 0.395126 1.104115 0.974475 0.608940 0.047968 0.080552 -0.283242 0.507655 -0.017294 0.306650 0.253427 -0.965706 -0.959189 -0.175009 0.275842 -0.187178 -0.002098 -0.025375 0.254878 -0.023121 0.012038 0.146817 -0.585005 0.302434 -0.198926 -0.116510 -0.567244 -0.417170 0.266005 -0.550667 -0.140590 0.618954 0.524942 -0.424221 -0.009849 -0.286887 0.054359 -0.121598 -0.253304 -0.575294 -0.021151 -0.205330 -0.002222 0.000321 -0.004315 0.207510 -0.194807 0.399551 0.437799 -0.492206 0.068457 0.277617 -0.244221 -0.162730 0.524390 0.446034 -0.892328 0.912947 0.560652 0.560377 -0.677696 0.250891 0.272000 0.002786 0.100516 -0.331994 -0.085228 0.006604 0.010498 -0.055788 0.502315 0.506482 -0.221009 -0.144288 -0.591705 -0.718103 -0.603286 -0.454694 -0.950725 0.375866 0.409490 -0.139237 -0.267303 -0.542629 0.695429 -0.835971 0.419961 0.065549 -0.389528 -0.215551 -0.533066 -0.040742 0.010326 0.053174 0.308587 0.268406 -0.048646 -0.372721 0.636050 1.031252 -0.750425 0.972637 0.142582 0.599562 0.935129 -0.279063 -1.217080 0.420904 -0.129536 0.101951 0.918870 -0.061124 -0.063745 0.031008 0.051624 -0.006359 0.017687 0.114287 0.663373 0.232520 -0.198156 -0.244547 0.381579 0.033969 -0.474473 0.160345 -0.369109 0.463270 0.203510 0.278109 -0.140559 0.652230 0.692940 0.184955 -0.096115 -0.110528 0.123964 -0.060064 -0.124208 -0.007920 -0.023690 0.068301 
0.364964 -0.213278 0.476238 0.336458 -0.085835 -0.493042 0.654874 0.257869 0.153616 -0.309700 0.119832 0.299498 0.533800 0.440106 0.267595 0.130147 0.605704 -0.531842 -0.015636 0.005745 0.205894 0.019740 0.041143 0.164598 -0.119242 -0.306926 -0.489807 0.947985 -0.033523 -1.015449 -0.154216 0.020461 -0.312058 0.128389 -0.276715 -0.148942 0.482499 -0.629912 -0.041473 0.536537 0.823704 -0.591412 -0.281252 -0.077452 0.231337 -0.009442 0.022183 0.209118 0.993370 -0.404833 0.029534 0.459440 0.061892 0.551852 -0.071420 1.102011 0.631946 0.937331 -1.665278 0.558400 0.114138 0.219411 0.192568 1.042986 -0.646948 -1.217161 -0.080316 -0.076208 -0.028841 0.022564 -0.023850 0.199542 -0.631815 -0.198224 0.400837 -0.201623 0.480466 -0.364601 0.783305 -1.152415 -0.484084 0.289752 1.111083 0.575215 -0.665845 -0.604788 0.508459 0.558650 -0.736902 0.491389 0.165876 0.096831 -0.251114 -0.015228 -0.032534 -0.209917 0.201978 -0.013850 -0.302531 -0.394289 0.842507 -0.928970 -0.761708 -0.156243 0.724645 0.132019 0.969970 0.634819 0.974693 0.721141 0.027721 0.049237 -0.614414 -0.939049 0.011133 -0.070460 0.251247 -0.008994 0.051104 0.120238 -0.045581 0.148040 -0.045797 -0.704484 -0.410732 0.370597 0.407445 1.019326 -0.699558 0.428136 -0.186470 -0.021768 -0.108326 0.032630 0.387435 -0.429131 -0.330200 -0.016522 0.121897 -0.209944 0.037962 0.017564 -0.029449 0.131256 0.399191 0.600038 -0.301886 -0.283512 -0.525512 0.239186 0.271046 0.697108 -0.074324 -0.053750 -1.029037 -0.152474 -0.097491 -0.455866 0.207984 -0.013226 0.294590 0.125804 0.110793 -0.155661 -0.134296 -0.042919 0.009423 -0.054151 0.828465 -0.581659 0.091827 -0.606640 -0.448845 0.243548 -0.083929 0.148515 -0.150095 0.213874 0.081036 0.221093 0.710623 -0.620502 -0.026552 -0.596014 -0.278939 1.046533 0.278784 0.245708 0.012701 -0.009829 0.007144 -0.493934 -0.504926 0.286527 -0.469972 0.231383 0.066919 0.087200 1.064299 -0.494262 -0.148959 0.089260 -0.054635 0.141828 0.243352 0.046821 -0.647991 0.231909 0.448687 -0.182566 -0.129390 -0.127908 0.262711 -0.006147 0.004002 0.211819 0.150883 -0.770443 0.324384 -0.188701 0.851934 0.373807 -0.051518 -0.527314 -0.037820 -0.378925 0.152082 -0.304012 -0.359762 0.629783 0.147796 -0.231560 0.064247 -0.504746 -0.092350 -0.392046 0.102466 0.007924 -0.019948 0.233353 0.048759 -0.238296 -0.089309 -0.564642 0.701444 0.133545 -0.611265 -0.075501 0.054983 -0.497449 -0.366096 -0.086969 0.356359 -0.158739 0.628220 -0.131872 -0.316317 0.515466 -0.100522 0.107222 -0.139197 -0.005893 -0.017100 -0.144400 0.495244 0.029658 -0.164997 -0.855599 0.480501 -0.396427 0.887335 -0.204831 -0.328806 0.378128 0.290664 0.530704 -0.081171 0.362226 -0.134227 0.111112 0.991657 -1.147991 0.115396 -0.252494 0.388044 0.047709 0.009555 0.263644 -0.203897 0.444591 0.084059 -0.538607 -0.467642 -0.390915 -0.148514 0.202556 0.324926 -1.585794 -0.720919 0.064714 -0.417186 -0.341553 -0.326065 -1.264075 -0.402615 0.869719 0.201826 0.286355 -0.028741 -0.036646 -0.007949 -0.047023 -0.041724 1.204221 1.116770 -0.610785 -0.300888 -0.005797 0.020832 -0.147858 -0.956418 0.287760 -0.433002 0.144956 -1.544800 -0.461233 0.186902 0.727836 -0.027196 -0.557337 0.023697 -0.174593 0.261879 -0.020193 0.020141 0.241495 -0.363000 -0.182061 -0.285245 0.750973 -0.337828 -0.120439 -0.251434 1.130876 -0.029793 0.469536 0.709370 -0.340546 -1.802670 0.383314 -0.717115 0.350022 -0.084804 0.552035 0.043714 -0.056553 -0.148085 0.039485 -0.032343 -0.156353 0.050938 -0.480568 0.417035 -0.511708 0.079868 -0.502317 -0.303407 -0.217248 0.719914 -0.169129 -0.072430 -0.010969 -0.296009 -0.006443 -0.385044 -0.063651 1.069251 -0.116911 -0.282582 -0.086219 -0.031706 -0.042293 0.010087 0.200249 
-0.577121 0.639701 0.066071 0.297276 0.811052 0.024489 0.105878 -0.107966 0.011457 -0.177873 -0.759254 -0.378330 -0.924143 -1.046961 -0.145447 0.623942 -0.664088 0.193839 0.232421 -0.085185 -0.087326 0.021356 -0.004156 0.029182 0.193532 -0.540470 0.264776 0.438535 0.053442 0.498489 0.278536 0.047191 -0.175964 0.833031 0.058416 0.072840 0.089967 0.177571 0.051965 -0.443624 0.165583 0.439178 -0.098080 -0.142484 -0.230984 0.000822 0.020939 -0.333478 -0.194760 0.258953 -0.014960 -0.272659 0.296345 -0.027307 0.219981 0.317587 -0.445386 -0.684899 0.190996 -0.745226 -0.092920 0.554715 -0.549706 -2.239585 -0.364621 0.184018 -0.030701 0.309334 0.000648 -0.036296 0.003022 0.026475 0.171321 0.908644 0.259448 -0.280362 -0.601575 -0.202863 1.561796 0.174617 -0.331478 -0.087786 0.006602 0.049398 -0.479002 0.361767 0.561388 -0.526008 -1.972774 0.308275 0.362478 0.591906 -0.426849 -0.020034 -0.022829 0.068681 0.734117 -0.254014 0.016197 -0.225279 -1.088893 -0.029898 0.753697 0.344654 -0.254319 -0.254554 -0.114869 0.321030 0.318323 -0.159553 0.473648 -0.449605 0.423425 0.020835 -0.113584 0.109565 -0.080819 -0.024992 0.019219 0.020172 -0.439562 -0.334787 0.758042 -0.160813 0.287573 -0.290016 -0.530659 -0.930924 -0.376560 0.432025 0.303245 0.160770 -0.382208 -0.461209 0.312717 0.517322 0.191098 -0.510797 -0.089449 -0.078575 -0.122480 0.016183 -0.001271 0.043665 -0.091567 0.381912 -0.187861 -0.786838 0.308091 -0.177309 -0.603717 0.233446 -0.133168 -0.593902 -0.222937 0.327258 -0.719964 -0.447721 0.402893 2.109942 0.377171 -0.162979 -0.057944 -0.175027 -0.201800 0.027451 -0.012127 0.087133 -0.611864 -0.719858 0.133736 0.309425 -0.185955 0.019724 -0.301152 -0.282008 0.344984 -0.931001 0.080236 0.621567 0.044797 -0.261464 -1.056070 0.324882 0.087520 0.125128 0.079932 -0.216158 0.084755 -0.001898 -0.007867 -0.019035 0.251429 0.584495 0.370535 -0.049499 0.795554 -0.711426 0.157554 -0.256433 0.142403 0.140091 0.420922 0.268929 -0.327618 0.392774 -0.359917 0.987739 -0.197859 0.215706 -0.153431 -0.407886 -0.023179 0.039193 -0.005572 -0.004162 0.529899 -0.519172 0.450750 0.358760 0.069559 0.317700 0.242818 -0.782248 0.217830 -0.352493 -0.446276 -0.151099 0.940659 -0.166733 -1.390274 -0.124722 0.118577 0.053335 -0.059934 -0.128185 0.028781 -0.025911 -0.015752 0.061317 0.272043 0.087316 -0.369515 1.078070 0.657998 0.511296 -0.489388 0.383718 -0.018885 0.495448 1.348620 0.144507 -0.055630 -1.442957 0.240062 -0.245527 0.324801 -0.211023 0.001297 0.009558 -0.202382 -0.019010 0.011461 0.002454 -0.063564 -0.137600 0.588733 0.356900 0.127130 0.016145 -0.010237 0.071933 -0.655507 0.819754 0.788382 0.379068 -1.009448 -0.675369 -0.630000 -0.583122 1.293533 -0.412907 0.007756 0.096627 0.243067 0.014970 0.011646 0.047699 0.294484 -0.668683 -0.197385 -0.181035 -0.318996 -0.129447 0.157352 -0.113373 -0.103034 0.037999 0.598403 0.237417 0.083451 -0.002709 1.175431 -1.028324 -0.206277 -0.231886 0.017211 -0.038587 -0.641631 -0.034803 -0.021603 0.019586 -0.609270 -0.349571 -0.180407 -1.173789 1.148551 -0.299442 0.173198 -0.139460 1.276305 0.278670 0.133700 0.185709 0.217735 0.229820 -0.094217 0.111047 0.409702 0.594715 0.006000 0.152159 -0.137089 0.020557 0.008476 -0.279601 0.384183 0.453842 -0.060121 0.076465 -0.815670 -0.320650 0.799189 -0.142280 0.436393 -0.229859 -0.147760 0.175909 1.237671 -0.187712 0.076027 0.463031 -0.125542 0.055222 0.069882 0.177720 -0.030563 0.027063 0.013119 -0.083043 0.086789 -0.716359 0.147892 -0.154426 0.290017 0.197334 -1.670535 -0.941691 -0.822983 0.261641 0.832115 0.755447 0.460430 0.270236 0.382521 0.322789 0.745868 -0.884511 -0.201653 0.228059 -0.197723 0.009444 0.003958 0.131335 
-0.415069 0.270187 0.507881 -0.546821 -0.258734 -0.296651 0.187415 0.714615 -0.105125 1.309359 -0.785315 0.523180 0.223090 0.552760 1.041990 -0.527660 -0.431081 0.239425 0.163696 -0.056654 -0.593832 -0.027903 -0.002787 -0.148747 0.079311 -0.179966 -0.203939 -0.255558 0.622682 0.240277 -0.502440 -0.012973 -0.424130 -0.164163 -0.413424 0.301502 -0.586723 -0.037151 -0.190418 -0.838889 -0.174388 0.654036 0.218203 0.299179 -0.232023 -0.045062 -0.008218 -0.109383 0.404516 -0.455677 -0.391089 0.313933 0.291859 0.194149 -0.972532 0.745797 0.294759 0.487294 0.112191 -0.028085 0.029987 0.123344 -0.454634 -0.615008 0.209627 0.143203 0.044241 0.053988 0.155418 -0.004699 0.011098 0.046829 0.680505 -0.526951 0.539760 0.210210 -0.128567 -0.158209 -0.990308 -0.167733 -0.165417 0.337840 0.312982 0.704487 -0.650986 0.384376 -0.411321 1.183391 0.786175 0.140776 -0.423014 -0.094248 -0.256786 0.017565 -0.002211 0.039203 0.306458 0.157252 -0.447268 0.367478 0.534967 -0.258522 -0.659463 -0.612089 0.423028 1.014639 -0.631421 -0.372573 0.111418 0.169122 -0.386927 -0.095752 0.656872 0.539725 0.080215 0.001446 0.023656 0.013337 0.029172 -0.193574 -0.118504 -0.060180 -0.453636 -0.564311 0.288818 0.198778 0.932185 0.101182 -0.005390 -0.090857 -0.163040 0.397245 0.063670 -0.099906 0.172877 0.364276 0.095798 0.332969 -0.404243 -0.139492 -0.374194 0.007934 0.001416 -0.131791 -0.348315 0.804150 0.051427 0.347542 0.101837 0.121825 0.846846 0.061674 0.742026 -0.274441 -0.531942 0.102418 -0.074746 -0.112378 -0.184128 0.824178 0.094925 -0.356153 -0.153088 -0.057653 0.191164 -0.004437 0.021814 0.090162 0.212769 -0.215897 -0.406581 0.013710 0.116087 -0.332381 0.773562 -0.934408 -0.622412 -0.071116 -0.327836 0.090390 -0.176174 0.232085 0.701512 0.223609 -1.342595 0.064036 0.311903 -0.305713 -0.253020 0.027537 -0.044077 0.072879 0.442739 0.155919 -0.530638 0.205672 0.209654 0.336283 0.675071 -0.281209 -0.061988 -0.431860 0.000970 -0.229396 -0.109584 -0.262321 0.218548 -0.167098 0.007339 0.533173 0.218719 0.175496 -0.014469 -0.003613 -0.009267 -0.220634 0.572496 0.398063 0.093226 -0.724511 -0.010560 0.463038 -0.032684 -0.101762 0.078379 -0.128281 -0.180080 -0.367403 -0.637888 -0.041923 0.328298 -0.311941 -0.703632 0.751273 0.753244 -0.191168 -0.569765 0.013540 -0.034109 -0.242545 -0.036433 -0.736519 0.029481 -0.180933 -0.538663 -0.666143 -1.039772 -0.422872 0.329050 0.032045 0.116482 -0.032546 0.386563 0.051314 -0.343559 -0.557179 1.529153 1.084900 -0.321451 0.251022 -0.053615 -0.038114 0.070613 -0.396384 -0.748209 -0.449045 -0.217937 -0.491279 0.403882 -0.096780 -0.436432 0.149325 0.109027 0.504546 1.205846 0.288363 1.273134 -0.402661 0.016330 0.052787 0.242598 -0.417468 -0.049958 -0.239543 0.045017 -0.003111 -0.008464 0.130404 0.415046 0.500604 0.260386 -0.610430 -0.191413 -0.860950 0.270648 0.297758 -0.676820 -1.534836 0.438186 0.071578 -0.192575 0.594019 -0.464323 -0.025174 0.286546 0.290464 0.041959 0.036763 0.116069 -0.008970 0.009801 -0.027779 0.005324 0.003391 -0.494704 0.867281 -0.220098 0.847720 -0.624282 -1.067668 -0.075204 0.262981 0.086985 -0.782953 1.275108 -0.008098 -0.530281 -0.677680 -0.264519 0.106664 0.064748 0.307187 -0.001275 -0.031261 -0.010538 0.098516 -0.466037 0.413749 1.016685 -0.861427 -0.225313 0.611535 0.637491 0.456125 -1.128231 0.217310 -0.005227 -0.688162 0.100934 -0.419199 0.291919 0.570531 -0.800094 0.396684 -0.218065 -0.360939 -0.333410 0.048092 -0.013856 -0.097983 -0.306892 -0.309951 0.413191 0.993513 0.285850 -0.004150 0.178521 0.394304 0.189583 -1.077451 -0.378379 -0.223360 0.186899 0.431048 0.245962 -0.282553 -0.085688 -0.089540 0.001955 -0.189668 -0.080674 -0.032474 0.009674 0.094669 
-0.052207 0.396997 0.549572 -0.532073 0.599460 -0.104325 -1.507889 -0.689264 -0.659546 -1.245618 1.106907 0.261727 0.260143 1.432740 0.204472 -0.103674 0.072825 -0.106111 -0.165056 0.306518 0.006116 -0.015425 0.016002 -0.049272 0.089180 0.194839 -0.053213 -0.373246 0.536454 0.313006 0.217870 -0.379646 -0.473084 -0.249053 0.114802 0.281316 -0.635240 -0.255465 0.205451 -0.244898 -0.052545 -0.172812 -0.448814 0.446807 -0.333562 0.004221 -0.018606 0.197045 -0.940576 0.272648 0.615114 0.046821 -0.180357 0.849179 0.050769 0.000124 -0.560156 0.089559 -0.298732 -0.640237 -1.138378 -0.268653 -0.113690 -0.051962 0.115480 -0.667658 0.026744 -0.026873 0.239356 -0.001912 0.012660 0.191114 -0.115584 0.017083 0.099515 -0.412588 0.087507 0.224962 0.073842 -0.096301 0.998812 -0.083348 0.442568 -0.239001 -0.736673 -0.903941 0.060623 0.535179 -0.279240 0.170484 0.075377 -0.072973 -0.182982 -0.005649 -0.022149 0.087632 0.024457 -0.124601 -0.097374 0.849812 -0.437747 -0.670760 0.106499 -0.774465 -0.468655 0.632243 -0.272014 0.666576 0.097812 -0.461149 -0.078584 0.632380 0.102029 -0.011503 0.028110 0.289156 0.086555 0.002070 -0.000156 -0.303676 0.731778 -0.161735 0.274944 0.152226 0.504621 0.064174 0.586253 -0.881195 0.369118 0.512023 0.451920 0.008246 0.765500 -0.377631 0.269925 0.279517 -1.330877 0.686438 0.128540 0.346099 -0.357575 0.019272 -0.029757 -0.110953 0.014772 -0.188665 0.183790 -0.559135 0.332052 -0.637927 0.338556 -0.116553 -0.410020 -1.307641 1.300081 0.479947 0.409284 -0.123239 -0.148204 0.324488 0.502260 -0.339880 -0.059621 0.139545 0.008443 -0.007282 0.026201 0.044646 0.340417 -0.020948 -0.458999 -0.141142 0.221948 -0.716396 -0.411677 -0.151768 0.520896 0.181729 0.086032 0.264262 0.714913 -0.900792 0.572572 -0.279510 0.026315 -0.138049 0.072599 -0.070759 -0.244319 -0.005314 -0.008422 0.039407 0.501920 -0.566506 -0.458136 -0.162142 0.321300 0.312386 -0.839021 0.449425 0.099442 0.206242 0.730449 -0.190722 0.119322 -0.370343 -0.184731 -0.153399 0.739260 0.439740 -0.071171 0.299463 0.145599 -0.009571 0.009790 -0.230958 -0.433592 -0.324459 -0.212562 0.644511 0.759047 -0.170273 -0.483104 0.793622 0.822769 0.384314 0.270259 0.288416 -0.152561 -0.020499 0.052015 1.094590 -0.506235 -0.652669 -0.041711 0.085082 0.067730 0.009400 0.012604 0.177765 0.932605 -0.006086 -0.475660 -0.074879 -0.315008 -0.362993 0.717454 0.879004 0.148741 0.149222 -0.612549 -0.215757 0.039613 0.060050 0.158010 0.430939 -0.284127 0.469236 0.208643 0.194320 0.048886 0.002183 -0.023964 -0.189196 -0.247579 -0.573309 -0.016276 0.201462 0.530327 -0.059333 -0.178802 0.057417 0.531563 -0.142857 0.083293 0.548383 -0.297996 -0.545011 -0.089877 0.046736 0.092955 -0.279473 0.276881 -0.181661 0.049405 0.036513 0.011943 0.114683 -0.614264 -0.220214 0.035421 0.679730 0.449457 -0.162235 0.466529 -0.793392 -0.757290 0.129150 0.159543 0.225045 -0.631397 0.119384 0.077800 0.097481 0.007458 -0.087503 0.075747 0.095586 0.121015 0.022483 -0.029507 0.085826 0.093769 0.025615 0.092199 0.064101 -0.754409 0.426442 -0.146055 0.311749 -0.660634 0.366523 -0.904278 -0.327995 0.322476 -0.382001 -0.117336 -0.273975 -0.150491 0.592790 0.179460 0.113846 0.079016 -0.032581 -0.014515 -0.089521 -0.449421 0.222279 0.226871 -0.490721 0.044047 -0.115203 -0.061181 -0.071030 0.061031 0.170052 -0.050272 0.322290 -0.155079 1.082165 0.290896 -0.673965 -0.377836 -0.045793 0.303364 0.074223 0.023988 0.001509 0.010846 -0.023257 -0.133596 0.018737 -0.909175 0.531783 -0.293767 -0.187287 0.094087 -0.311488 -0.216152 0.575662 -0.587902 -0.140845 0.789648 -0.276940 -0.071502 -1.488187 -0.082595 -0.265320 -0.092374 -0.021263 0.052257 -0.018686 0.013653 0.231096 
0.080500 0.325765 -0.334129 -0.885112 0.606641 0.670076 -1.045025 0.304996 -0.097649 0.656636 0.778979 0.352685 -0.231194 0.197659 0.116121 1.941828 0.604787 -0.125781 0.158274 -0.257807 0.000885 0.070922 0.019477 -0.015522 -0.376388 0.234049 -0.225553 0.158525 -0.332280 -0.147882 -0.255555 0.001324 -0.536388 -0.112054 -0.149828 1.008541 -0.040884 1.110774 -0.571847 0.567639 0.819045 -0.156406 -0.024742 -0.096200 0.214395 0.023870 0.036106 -0.015135 0.139195 -0.193134 -0.189292 1.287342 -1.021566 1.546642 0.168194 0.463444 -0.311607 0.552932 0.082715 -0.788577 -0.860893 -0.653351 0.520938 -0.159598 -0.153821 0.285451 0.170980 0.126497 0.040315 -0.008803 -0.021664 -0.001666 -0.039203 -0.182581 -0.618580 -0.119004 0.063614 -0.453639 0.267835 -0.270783 -0.203615 1.018907 -0.898854 -0.340123 -1.538431 -0.238091 0.822281 0.807246 -0.319258 0.332560 -0.136177 0.041158 -0.249718 0.033730 -0.010321 -0.292443 0.208221 0.097275 0.294560 -0.513828 0.752005 0.578973 0.754538 0.137577 0.028941 -0.729816 0.457452 0.419463 0.017554 -2.125553 -0.996094 0.231544 1.168216 -0.549089 -0.025589 -0.138254 0.214865 0.004257 0.058120 0.038690 -0.089326 -0.203133 -0.548895 -0.264122 -0.302551 -0.324957 -0.533631 -1.119917 -0.186239 -0.614431 0.816080 1.085445 0.140149 -0.765989 -0.248875 -0.316098 -0.315389 -0.605987 0.088026 0.082850 0.139748 0.016684 0.007575 0.090089 -0.705490 -0.164876 -0.759475 -0.504290 1.079136 0.606380 0.324960 0.166503 0.530626 -0.283761 0.074461 0.549460 0.390400 -0.610915 0.422826 0.026738 0.025477 -0.621861 -0.119546 0.046939 0.084413 0.027793 0.002863 0.196763 0.253717 0.075248 -0.426608 -0.348438 -0.300865 0.786895 1.557677 -0.748141 0.277530 -0.548212 0.213292 -0.818928 0.297341 0.161153 -0.030720 0.389822 -0.901527 -0.907903 0.311772 -0.130838 -0.080514 0.011399 -0.022145 0.075920 0.141930 -0.405394 0.569716 -0.349601 -1.741509 0.309292 0.454021 1.259440 -1.123246 -1.286308 -0.272333 0.605311 0.001545 0.746025 -0.126818 -0.501911 -0.136453 -0.535325 0.009809 -0.244212 -0.105285 -0.033028 0.022680 0.172266 -0.720454 0.965619 0.434514 -0.767993 0.480204 -1.113331 -0.759032 0.706529 -0.760868 0.188448 0.936117 1.242876 0.433258 -1.052612 -0.106249 -0.248877 0.569830 -0.611293 -0.208269 -0.038071 -0.007488 -0.020233 0.017705 0.088603 0.959226 0.083865 -0.211250 1.000740 0.688061 0.247626 -0.419124 0.171138 0.240392 -0.165635 0.967669 0.657154 1.134886 -1.319645 -0.106383 0.058092 0.099620 -0.551825 0.026471 -0.241277 0.125465 0.000015 -0.006236 0.163691 -0.078196 0.635976 -0.140918 -0.208014 -0.078764 -0.435049 -0.110991 0.494623 -0.222602 -0.546985 -0.798936 1.450251 1.079326 0.037954 -1.132508 -0.401132 0.852575 -0.784457 -0.283120 -0.487889 -0.064357 -0.032469 0.006452 0.093067 1.288702 0.451565 0.802739 -0.258600 -1.447821 0.168341 0.931950 -0.816344 -0.176406 1.290808 -0.243297 0.505618 0.525547 -0.427498 0.649297 -1.585316 1.085782 1.269976 -0.119160 -0.232886 -0.536629 -0.052369 0.066722 -0.479857 1.215097 0.492700 0.431506 0.327713 -1.017424 0.097390 1.070440 -0.270600 0.479722 -0.457557 0.236011 0.116625 -0.332312 -0.554214 -0.358955 -0.004551 0.393308 0.022707 0.116786 -0.039671 0.006215 -0.020084 0.004443 -0.067838 -0.410305 -0.296438 -0.683043 -0.963556 0.066189 0.128608 0.124098 0.730473 0.165105 -0.061432 0.356324 -0.063450 -0.293638 -0.128320 0.075523 0.323336 1.062746 -0.291659 -0.130764 -0.285508 -0.027869 -0.021860 0.022209 0.095596 -0.021161 0.371086 1.093694 0.510319 -0.268050 0.437373 -0.710395 -0.040002 -0.961370 -1.568275 -0.118285 -0.694190 -0.633759 -0.085385 0.821344 -0.321528 0.331971 0.085898 0.168031 -0.881741 -0.978837 -0.000102 -0.026421 0.055076 
0.657621 -0.675142 0.144592 -0.583113 0.703902 -0.134307 -0.255333 0.132109 0.519324 0.243517 -0.455643 0.397679 -0.027027 -0.067824 0.338518 -0.600674 -0.216819 -0.000110 0.196944 0.141575 -0.322988 -0.036323 -0.021927 -0.058168 -0.084194 -0.296741 0.544923 0.045060 1.515399 -0.772870 0.000625 -0.119647 0.203030 0.336658 -1.259496 0.487970 0.653261 -1.168374 0.306657 -0.018000 0.674891 0.430238 -0.079949 0.066536 -0.155451 -0.012133 0.023382 -0.198152 0.443738 -0.129559 0.148573 -0.250884 1.100902 -0.574485 -0.046286 0.166853 -0.137436 0.414381 0.761257 1.616954 -0.006816 -1.152977 -0.056707 -0.700647 1.264536 -1.437686 -0.213280 0.059332 0.080204 -0.013729 0.019242 0.233219 -0.007824 -0.817985 0.147833 -0.429281 0.299897 -0.137759 -0.003982 0.696669 0.461566 -0.180989 -0.577239 0.950352 0.157869 0.440277 0.295679 0.601458 -1.296368 -0.184140 0.213450 0.063005 -0.305649 0.024342 -0.046585 -0.127666 -0.302671 0.023527 -0.151866 0.825443 1.083380 -0.292000 -0.870561 0.668993 -0.070608 -0.485960 -0.116939 0.137530 0.607634 -0.129771 -1.162569 0.857352 -0.348643 0.372653 0.157290 -0.093778 0.213270 0.028127 -0.026921 -0.022671 -0.017046 -0.210097 -0.216012 -0.419474 -0.073065 -0.005754 -0.124782 -0.479475 -0.434688 -0.595539 0.404063 0.167825 0.455347 0.630759 0.009381 -0.794454 -0.751646 0.518173 0.210254 0.497669 -0.158089 -0.046403 -0.009761 -0.155389 -1.083004 -0.177755 -0.197904 0.409777 -0.016409 0.091165 -0.476684 -0.530118 0.281871 0.279880 0.341679 -0.281956 -0.045067 -0.028030 -0.563423 0.280506 0.173783 0.673967 0.092949 -0.178447 -0.030294 0.015282 0.008203 -0.154468 -0.451880 0.520312 -0.079608 0.161357 0.395267 -0.387112 -0.972545 0.061115 0.360871 0.371964 -0.252670 0.409242 -0.035883 0.557378 -1.128584 -0.481668 0.182726 0.193673 0.014921 0.230438 0.141095 -0.023953 0.016354 -0.086705 -1.206156 -0.333633 0.557708 0.674815 -0.965171 0.660352 -0.567477 0.628765 -0.742191 0.863885 -0.126541 0.399923 -0.049583 0.120519 0.457452 -0.640624 0.248694 -0.666392 0.034216 -0.009913 0.126921 -0.004047 0.013771 0.233360 -0.043980 0.004368 -0.155166 -0.313308 -0.516286 0.520880 0.992834 1.326326 -0.221908 -0.764259 -0.409677 -0.241040 -0.857954 0.653175 -1.010036 0.523669 -0.387399 0.549123 0.010227 -0.009529 0.120027 0.050776 -0.016860 -0.093690 1.178286 -0.445926 0.905884 0.124044 0.088169 -0.031755 0.442757 -0.041476 -0.452092 -0.484659 0.270505 0.202841 -0.604444 0.545679 -0.023999 -0.198315 -0.516931 -0.165510 0.018439 0.172954 0.058072 -0.012498 -0.009177 0.175711 -0.254467 0.052094 0.133045 -0.690536 0.013480 0.023385 0.023346 0.452787 0.160019 0.615148 -1.057208 -0.804048 -0.348188 0.102833 -0.248987 0.398709 -0.088026 0.819921 0.050010 0.096717 0.059694 0.023684 -0.011301 -0.185644 0.674915 -0.588988 -0.019794 -0.285192 0.396721 0.785012 1.188878 1.028396 -0.000463 -1.458655 -0.631407 -1.075089 0.006134 0.522939 0.227367 0.109341 0.072658 -0.142968 -0.108067 -0.118945 -0.104695 0.000240 0.015442 0.060989 -0.499778 -0.709193 -0.090484 0.007678 0.329541 0.052374 -0.036915 0.353779 -0.270795 0.934182 -1.145898 -0.169851 -0.411147 0.097082 -0.843068 -0.740318 -0.088908 -0.175845 0.027418 0.067689 0.106823 -0.020143 -0.018570 0.112438 -0.454830 -0.343567 0.260665 -0.206379 -0.027097 0.124851 0.487451 0.383487 -0.867358 0.805036 0.232974 0.297610 -0.021861 0.108068 -0.051453 0.623512 -0.418064 0.607775 0.083473 -0.013104 0.227478 0.026015 0.003364 -0.141675 -0.135391 -0.500706 -0.040976 1.518978 0.180986 -0.568341 1.346693 -1.603906 -0.659153 0.830479 -0.378635 0.362204 -0.398024 1.203794 0.713183 -0.694164 -0.853980 -0.278555 -0.137493 0.419266 -0.377441 -0.025381 -0.020556 0.122622 
0.601010 -0.285291 0.069679 -0.046676 0.293339 -0.274518 -0.961529 -0.016160 0.067204 0.254650 1.147544 0.345868 -0.951987 0.115005 -0.023767 0.154925 -0.278840 0.700888 0.168008 0.211029 0.088753 -0.019437 -0.010954 -0.249200 0.136019 0.195868 -0.192087 -1.040754 0.111181 0.371816 0.719404 1.574880 0.482162 0.307581 -0.426453 -0.903067 -0.098574 0.297575 0.079095 -0.072143 0.130803 -0.186658 -0.103755 -0.089984 0.124750 0.026375 0.008322 0.156702 0.022526 0.213653 -0.196756 -0.355017 -0.531027 0.159831 0.215893 0.792099 0.315061 -0.797601 -0.904272 0.485449 0.279094 0.948515 -0.798057 0.201892 -0.049900 0.352693 0.374995 -0.698850 -0.356061 0.000814 -0.030629 -0.004416 0.474693 -0.083226 0.002386 0.712197 -0.079891 -0.050228 -0.462595 -0.049711 -0.747139 -0.478913 0.066834 0.104076 1.177948 -0.172678 -0.882900 -0.786289 1.173439 0.874126 0.035474 -0.300151 0.108278 -0.039959 0.040558 -0.061047 -0.253795 0.471735 -0.221105 0.299890 0.331523 -0.152052 0.585195 -0.380593 0.473314 0.878002 -0.454357 0.067033 0.093136 0.498265 -0.029504 0.329870 0.066459 -0.094854 -0.070450 0.021758 0.225149 0.041765 0.024919 0.077448 0.489326 -0.809945 0.662242 0.862009 -0.411885 0.163489 -0.000216 0.295652 -0.546624 -0.194634 1.009406 -0.501738 -1.244742 -0.677542 0.062640 0.321423 -0.458369 -0.586792 -0.144707 0.048705 0.095348 -0.021115 -0.001286 0.213592 0.903693 -0.195617 0.536767 -1.058435 0.154735 -0.803148 0.279092 0.057669 0.404210 0.426474 -0.625489 0.214003 -0.718923 -0.530696 -0.733101 0.459231 0.186523 -0.386077 -0.070620 -0.317315 -0.010334 0.005563 -0.025842 0.157318 0.091285 0.314016 0.377756 -0.834615 0.150648 -0.152383 0.214510 -0.424525 -0.523503 -0.022825 0.241064 0.762561 -0.055556 -0.652430 0.397072 0.196950 0.378999 0.426887 0.118360 0.054868 0.076468 -0.001683 0.013603 -0.013445 0.579665 -1.135041 0.772988 -1.008887 -0.881193 0.433375 -0.209084 -0.238638 -1.557206 0.092716 0.322531 -0.388232 -0.339328 0.090062 1.076355 0.249080 -0.759731 -0.913185 0.036487 -0.076124 -0.261087 0.011480 -0.013220 0.172053 -0.306221 0.641718 -0.132780 -0.195369 0.619729 0.133020 0.081398 -0.049059 -0.397304 -0.730565 -0.952632 0.569564 1.668090 0.408082 0.057362 -0.407826 -0.367970 -0.002646 -0.024401 0.044093 -0.184786 -0.029071 -0.011692 0.005131 -0.714229 0.344880 0.211032 -1.880547 -0.117400 -0.003777 0.555326 0.504936 0.220914 0.461513 -0.410467 0.023335 -0.146285 0.125352 0.001759 -0.613805 0.529374 -0.024846 0.270595 -0.216323 -0.103729 -0.002531 0.004201 -0.024128 -0.536474 0.217859 -0.240334 -0.172175 0.074550 -0.074895 -0.928900 -0.591104 1.339493 -0.265441 -0.167254 0.436918 -0.139190 0.151973 -0.858572 -0.207683 0.866795 0.728603 -0.138141 0.177838 0.122874 -0.005874 0.047804 -0.211983 -0.512072 -0.114883 -0.253802 1.124041 -0.299893 0.306177 -0.110005 -1.276615 -0.248587 0.532125 1.127406 -0.731868 0.449139 0.883453 0.460318 -0.641041 -0.202672 0.187367 -0.063512 0.127709 -0.000738 -0.043583 -0.000676 -0.075202 -0.290712 0.193872 -0.540989 0.175653 0.364128 0.839768 -0.055329 0.483773 0.064901 -0.139888 -0.362475 0.650746 0.350386 0.489150 -0.231254 0.310597 -0.119076 -0.442932 -0.013014 -0.012061 0.144844 0.027740 -0.005159 0.071306 0.954081 -0.628295 0.156295 2.123743 -0.672613 -0.175312 -0.472854 0.131102 -0.763184 -0.236001 0.077025 -0.124510 0.012289 -0.199156 -0.489042 1.474172 0.189387 -0.230434 -0.351808 -0.086503 0.044148 0.013190 0.038183 0.156444 -0.545986 0.356509 0.135968 -0.526635 -0.119693 -1.142853 -0.189996 -0.123008 0.751582 -0.041582 -0.142040 0.030649 -0.291375 0.028848 -0.225164 0.072353 -0.712948 0.336723 0.336398 -0.234949 -0.137746 0.013437 -0.029044 -0.050455 