-0.844396 0.281178 -0.569171 -0.368709 0.052828 0.135239 -0.118622 0.309405 0.098915 -0.077624 -0.821026 -0.454821 -0.317789 -0.066917 -0.222430 0.829908 0.072938 -0.227059 0.220353 0.211186 0.103389 0.008474 0.015077 -0.019690 0.388009 -0.099774 0.256528 0.154528 0.395375 -0.155735 0.029375 -0.778893 -0.148718 0.652100 0.020255 -0.496780 -1.301411 -0.407191 0.843978 0.852534 -0.468501 0.215324 -0.043878 0.042161 0.254730 0.001274 -0.009496 -0.028158 0.155445 -1.228195 0.040280 -0.752243 -0.141271 -0.263774 -0.191512 -0.401364 -0.754453 0.726424 0.009088 0.326935 0.235218 0.017495 -0.084074 -0.307413 0.201964 0.489425 0.156598 -0.007528 0.040537 -0.012639 0.005678 -0.039762 0.923698 0.624244 0.647040 0.293643 0.401785 -1.319760 -0.518631 0.374270 0.336041 0.058614 0.051949 -0.359242 -0.286869 0.027660 0.114029 0.183596 -0.484978 0.475311 0.268838 0.187205 0.019270 -0.000771 -0.008148 -0.019372 1.087858 -0.032764 -0.236116 -0.492114 0.237894 0.375383 -0.496963 -0.100415 0.286602 -0.756962 0.156720 0.885093 0.306632 0.153763 -0.314663 -0.738605 -0.223829 0.301577 0.027731 0.018365 -0.040135 0.005178 -0.001827 -0.009506 -0.088654 -0.441128 0.924807 -1.054381 -0.239391 -0.552917 0.314913 0.135108 -0.857937 -0.479926 -1.291055 0.102077 0.289240 -0.324122 0.098089 -0.234888 0.425332 -0.545212 -0.010862 -0.131290 -0.281746 0.000766 0.009078 -0.044692 -0.165466 -0.159596 0.370063 0.882791 0.381705 0.180282 0.219683 0.640674 0.792449 0.241649 0.081571 -0.627921 0.026943 1.217303 -0.288364 -0.089189 -0.040971 0.189649 -0.039554 0.010268 -0.068661 0.009773 0.001765 -0.027863 -0.618017 0.748434 -0.138852 0.006185 -0.669438 0.880324 -0.888525 -0.191782 0.160561 -0.775178 0.647866 -0.066873 0.340670 -0.083189 -0.429224 -0.575194 0.096375 -0.329582 0.026346 0.040635 0.064747 -0.008541 -0.020350 -0.023911 -0.327950 0.156177 -0.472927 -0.047406 -0.437836 0.137532 -0.191375 0.045478 0.294919 1.106437 -0.733306 -0.656084 -0.506661 1.147088 0.534265 0.128228 -0.425771 -0.415416 -0.015150 0.146977 -0.092386 -0.009555 0.012690 -0.031449 0.858059 -0.135261 -0.147064 0.473824 1.216407 -0.308030 0.259963 0.107357 0.006974 0.242109 -0.156192 -0.424230 -0.045519 -0.483414 0.764646 0.195510 0.811773 0.513789 -0.053622 -0.085793 -0.316793 -0.006451 -0.005702 -0.038535 0.080971 0.039109 -0.208848 -0.252732 0.191143 0.278198 0.088836 0.357590 -0.176948 -0.250642 -0.468320 -0.601000 -0.451528 -0.646690 -0.233501 -0.674175 0.217745 0.604230 0.181781 -0.032432 -0.124661 -0.002306 0.006881 -0.039495 0.645525 0.007718 -0.423144 -0.107731 -0.599135 0.285740 0.389035 -0.361103 0.371439 0.490518 0.370104 -0.522573 -0.367799 0.149669 -0.298020 0.183445 -0.574634 0.482345 -0.003244 0.094509 -0.229385 -0.003633 -0.009314 -0.020807 -0.364006 0.688657 -0.043081 0.150570 -0.113780 0.106268 0.017032 -0.110019 0.393433 0.006388 0.199562 -0.321669 0.577040 0.172792 1.294282 -0.130117 -0.540389 0.411055 0.079702 0.172130 -0.111123 -0.007150 -0.000440 -0.034151 -0.089447 -1.666515 0.335059 -0.313346 0.514326 -0.521139 0.056239 -0.150104 -0.241329 0.322986 -0.232997 -0.268717 0.806473 -0.644238 0.673944 -0.583866 0.844441 -0.074799 0.154164 0.118234 -0.230956 0.004923 0.016992 -0.041288 0.385836 1.374207 -0.567658 -0.407725 -0.757959 -0.551594 -0.570620 0.336680 0.987339 0.031620 0.805991 1.277209 0.086266 -0.356015 -0.540877 0.714001 -0.885099 0.017625 -0.134140 0.266427 -0.103002 0.003961 -0.010220 -0.041618 -0.183707 0.019623 0.906712 -0.111112 -0.000296 -0.275416 0.403912 -0.236273 -0.412511 -0.016796 0.402498 0.232014 -0.275054 0.409206 -0.614483 -0.036791 -0.036741 0.020466 0.138439 0.057399 -0.066956 0.008104 -0.011760 -0.047318 
-0.288033 -0.373088 0.064431 0.351621 0.104212 0.066216 0.401029 -0.649871 0.354977 0.024775 -0.085105 0.476281 0.002233 -0.316969 0.429870 -0.594683 0.830205 0.094620 0.280339 0.025426 -0.465068 0.008717 0.001329 -0.036903 -0.655011 0.726612 0.107404 -0.056078 -0.118636 0.403464 0.080015 0.158253 0.075883 -0.578227 0.148286 -0.023033 0.393824 0.141265 -0.082790 1.227568 -0.182811 -0.154267 0.071142 0.270866 0.167135 -0.008344 0.003673 -0.023949 -0.128722 -0.274394 -0.295115 -0.166323 -0.319884 -1.424175 -0.361936 0.077021 -0.251008 -0.045727 0.114533 -0.170377 -0.683253 0.481365 -0.253045 0.555000 -0.015201 0.703309 -0.064204 -0.010749 0.043693 0.002846 -0.006993 -0.043821 1.419081 0.239868 1.223188 -0.775610 -0.605080 -0.193888 -0.456423 0.973367 0.922848 0.805273 -0.050307 -1.165123 -0.843556 0.574506 -0.813783 -0.368212 -1.004361 0.262097 0.136905 0.100819 -0.122982 0.010852 -0.000030 -0.046315 0.253411 0.564109 -0.520936 -0.463956 0.290746 -0.821762 -0.061576 0.173959 0.781890 -0.051771 0.444286 -0.090085 0.045512 -0.685967 0.476826 -0.192352 0.779762 0.133863 0.363692 0.023905 -0.257330 -0.017434 -0.016017 -0.047964 0.505325 0.462898 -0.201208 0.255633 0.215168 0.361974 0.213284 -0.544669 0.199864 0.293957 0.133609 -0.573920 -0.828465 0.019496 0.168407 -0.232607 -1.042150 0.129602 -0.015994 0.246854 0.070496 -0.000661 -0.005878 -0.005987 -0.278084 -0.708710 0.123376 0.422185 0.282678 0.557008 0.571601 0.308868 -0.163856 0.882841 -0.404369 -0.127026 0.353729 -0.234611 -1.156681 -0.015039 -0.003382 0.090884 0.078153 -0.009915 -0.040250 -0.006427 0.007719 -0.040049 -0.160503 -0.898450 -0.374434 0.234904 -0.718561 -0.271199 -0.050836 -0.179888 -0.354062 0.245569 -0.103915 0.615816 0.634256 0.348863 0.654892 -0.572732 -0.244317 0.412157 0.287912 -0.066716 -0.010248 -0.010670 0.014247 -0.035950 -0.392161 0.910622 0.006080 0.870400 -0.137937 -0.038103 -0.283968 0.670567 -0.220860 0.057427 0.008932 0.145850 -0.097042 -0.209171 -0.494362 -0.011019 -0.139994 0.179076 0.009456 -0.013569 -0.080012 -0.004420 -0.015078 -0.029577 0.069244 -0.190158 -0.453028 -0.160160 -0.450072 -0.001543 -0.530676 0.090649 0.460277 -0.154781 0.367244 0.525356 0.877618 -0.009856 -0.146452 -0.164232 -0.029312 -0.447201 -0.024471 0.127301 -0.077215 0.005316 0.009567 -0.019916 0.580276 -0.512999 0.533534 -0.717948 1.187825 -1.990555 -0.190579 0.142439 0.392222 -0.305368 0.599999 0.982124 -0.163445 -0.187475 -0.090765 -0.303829 0.655832 0.463092 -0.053756 -0.233482 -0.219408 -0.013731 0.003151 -0.017837 -0.366481 -0.280954 -0.229590 0.358993 0.083987 -0.368429 0.034438 -0.595922 0.107762 0.321534 -0.030112 0.246930 -0.112632 -0.884180 0.047352 -0.538871 -0.180061 -0.650577 0.019735 0.163067 0.062160 -0.000252 0.000043 -0.013730 0.610064 0.067698 -0.082132 -0.547579 0.088765 -0.259623 0.216591 0.148695 -0.686655 0.080963 0.933792 0.515667 -0.375483 0.305581 0.226838 0.162277 0.138986 0.086112 0.116543 0.126771 -0.189395 0.016144 0.012068 -0.036309 -0.644636 0.024394 -0.058912 0.289543 0.342897 -0.133628 0.314343 -0.153386 -0.270304 -0.404791 0.568010 0.942436 0.439226 -0.683251 0.616074 -0.341567 0.202899 -0.253304 0.014142 -0.003327 0.073194 0.003334 -0.000094 -0.037995 -0.595337 -0.474122 -0.206217 0.059721 0.052729 0.034190 0.289108 0.022543 -0.072683 0.053592 -0.313654 0.224283 0.509472 -0.356024 -0.069199 -0.838353 0.551081 1.077156 0.142079 -0.180806 -0.568195 0.004763 -0.016535 -0.048787 0.005188 0.163482 -0.221671 0.602516 -0.091687 0.320333 -0.703405 -0.455401 1.349728 -1.243177 -0.334571 -0.097264 0.537870 -0.867042 -0.214964 0.059768 -0.499515 0.307904 0.172475 0.348847 -0.322909 0.000258 0.001506 -0.020304 
0.470540 0.455680 0.475017 -0.082075 -0.078642 -0.103335 0.742188 -0.009181 0.147183 0.107009 -0.858180 -0.090894 -0.279735 -0.782119 -0.310250 -0.603499 0.772607 -0.708046 0.248168 0.194892 -0.090227 -0.000346 0.005932 0.010225 -0.239506 -0.311362 -0.501458 1.124721 0.486744 0.200081 0.170498 -0.270272 0.490547 0.204561 0.909050 -1.082898 -0.064652 0.924454 0.288954 1.096311 -1.596473 0.078295 -0.102173 0.023682 0.283907 -0.002393 0.011368 -0.016543 0.307258 0.083218 -0.272017 0.055863 0.283325 -0.832622 0.722011 0.706039 -0.072053 0.040560 0.261865 0.733333 0.250730 -0.722392 -0.766645 -0.203673 1.128393 0.343581 0.062208 -0.037910 0.064264 -0.002936 -0.007406 -0.037866 0.374867 -0.065586 0.012064 0.569043 -0.857347 0.148149 -0.590175 -0.004529 -0.631952 0.169906 -0.196689 -0.809766 -0.088936 0.206921 0.734987 -1.268781 -0.313130 0.245456 0.098402 -0.036235 -0.159585 0.000923 -0.004996 -0.022100 -0.337103 -0.151275 0.092002 0.030375 -0.807638 -0.320018 -0.291596 0.625497 -0.642209 -0.369365 0.069197 0.457757 -0.492184 -0.512031 0.444167 -0.952754 -0.201327 -0.332110 0.096026 0.162589 0.124667 -0.000031 -0.013442 -0.031693 0.171292 0.318050 -0.152071 -0.461803 0.048132 -0.086824 0.599092 -0.240545 0.152580 -0.299492 -0.422466 -0.501933 -0.128889 -0.015967 0.017021 0.094852 0.285123 0.293002 -0.016828 0.254533 0.108186 -0.006185 -0.002524 0.014393 0.095842 -0.070608 -0.180125 0.820512 -0.746367 0.993835 0.267900 -0.802305 0.275335 -0.946813 0.910878 0.914203 -0.476393 -1.363608 -0.679345 -0.418936 -1.336721 0.031782 -0.023033 -0.004148 0.311052 -0.008263 0.005236 -0.033923 -0.025885 0.405556 -0.282901 -0.957924 0.607964 0.214981 0.348943 -0.993398 -1.915829 0.120386 -0.528258 0.446022 0.698727 1.571992 -0.400778 0.213785 0.944937 0.403660 0.076466 0.177646 -0.332037 -0.004147 0.005924 -0.034655 0.278702 0.311542 0.073444 -0.574747 0.046689 -0.005135 0.217547 0.163586 -0.968464 -0.239149 0.147754 0.843566 0.304241 -0.009147 -1.381348 1.172512 -0.790117 -0.331430 -0.032392 0.202178 0.233878 0.007517 -0.008603 -0.010794 0.246964 0.781909 1.200103 0.029530 0.494461 0.420137 0.119082 -0.880743 -0.446838 0.860181 1.007994 0.156501 -0.534979 -0.219139 -0.376438 -0.269142 0.017814 -1.055700 -0.025149 0.101789 0.338666 0.014127 -0.006999 -0.009829 -0.292322 0.180889 0.237616 0.284702 -0.767539 -0.125818 -0.416992 0.690204 -0.139299 0.019822 -0.187467 0.333431 0.857471 0.196034 0.949709 0.092795 -0.668122 0.675927 -0.196980 -0.007293 0.054288 0.014292 -0.001308 -0.026140 0.069907 0.082606 -0.052960 0.518693 1.104826 1.576280 -0.160210 -0.989931 -0.887106 -1.055889 -0.036793 -0.361819 -0.528743 0.212192 -0.412869 0.414472 0.180192 0.182405 0.169713 0.257222 -0.058045 0.004771 0.009063 -0.034470 -0.067983 -0.544663 -0.315476 -0.659756 0.437088 0.154679 -0.453898 1.540195 -0.786313 -0.113742 0.087672 -0.116479 -0.279602 -1.286977 0.702510 0.071766 0.094036 -0.501015 0.105721 0.172253 0.267075 -0.015280 -0.000871 -0.016819 0.417652 0.846991 -0.219438 -0.419686 -0.618457 -0.309242 0.174872 0.376134 0.478936 -0.016203 0.537875 -0.149691 0.871983 1.082352 0.251116 -0.934425 -1.194850 0.278346 0.010373 -0.035505 0.470871 -0.013052 0.002963 -0.032862 -0.880289 -0.235847 0.721274 -0.724695 -0.450415 0.664859 -1.338134 0.910055 -0.074927 0.514654 -0.789149 -0.526238 0.037407 -0.548551 0.109233 -0.264710 0.738631 0.412634 0.073317 0.030262 -0.336676 0.004049 -0.012225 -0.056548 -0.578211 -0.029231 -0.282888 0.776760 -0.593103 1.265399 0.555620 -1.017462 0.006884 0.159980 0.009278 -0.375272 0.864889 0.604998 0.092027 -0.105460 -0.324649 0.415763 0.155087 0.110797 0.123536 -0.002808 0.002287 -0.022688 
-0.092709 0.058925 -0.525541 0.041140 -0.877929 0.685593 0.638687 -0.734876 0.328584 1.219366 1.011814 0.183199 0.733840 -0.301520 0.835744 0.559542 0.843139 0.038048 -0.056252 0.044755 -0.026743 0.003891 -0.012374 -0.027290 0.167749 -0.125607 -0.353655 0.115229 -0.215818 -0.123296 1.022007 0.241249 -0.332829 -0.596962 0.111335 -0.087184 -0.364648 -0.042411 -0.328559 -0.073230 -0.384346 -0.812092 -0.128768 0.065551 0.125148 0.016337 -0.012150 -0.007939 -0.209253 0.455771 0.152036 0.382416 -1.144296 0.368944 -0.066709 -0.429127 0.317303 -1.179433 0.547187 -0.126715 -0.828033 -0.377752 0.603876 -0.009756 0.706223 0.089340 0.057916 -0.100459 0.154470 -0.014913 0.006478 -0.001744 0.475314 -0.237129 -0.356451 -0.504078 0.796244 -0.866160 0.338166 0.782073 -0.657208 1.097265 -0.995371 0.415889 0.336341 0.007483 0.178091 0.262947 -0.487911 0.007778 -0.031736 -0.083667 0.211712 -0.010200 0.011898 -0.044946 0.070331 -0.242955 -0.589922 -0.037396 -0.115082 -0.169754 -0.075399 0.176516 0.244028 -0.689270 -0.769320 0.158092 -0.042618 0.571016 0.682280 -0.114669 -0.738890 -0.134466 0.429244 0.268301 -0.318230 -0.011112 -0.001844 -0.051080 0.075698 0.078571 0.090234 -0.605779 -0.325850 -0.162395 0.153137 -1.529466 -0.101843 0.246495 0.817780 0.121545 0.137318 0.447496 0.479317 -0.296675 0.663711 0.343357 0.375770 -0.173048 -0.091053 -0.002776 0.006448 -0.023452 -0.297903 -0.187888 0.742880 0.122243 0.857759 0.322829 -0.054150 1.611246 0.609197 0.327178 0.242666 -0.951259 0.221336 -0.725525 0.655876 -0.383724 0.399954 -0.501082 0.090425 -0.145119 -0.097277 0.005463 -0.009671 -0.031263 -0.229828 -0.478616 0.138386 0.823269 -0.080480 -0.473765 -0.066652 0.398022 0.385506 0.366117 -0.098707 -0.583683 -0.356610 0.361020 0.372748 -0.904004 -0.628523 0.996718 0.202053 -0.155371 -0.170744 -0.004938 0.014860 -0.024868 -0.084395 -0.908221 1.642737 -0.541433 0.203648 -0.641144 -0.913065 0.082575 -0.346899 0.159890 0.460527 -0.058570 -0.972530 0.391791 0.297421 0.223561 0.209659 -0.222560 0.158491 -0.001765 0.219786 -0.002176 0.002452 -0.001631 -0.337657 -0.131464 0.450314 -0.021048 0.672251 1.065184 0.142067 -0.203692 -0.129766 0.809647 -0.819922 0.038431 0.348885 -0.629033 0.197082 -0.216778 0.211209 -0.343789 0.224578 -0.135035 0.281674 -0.012667 0.006693 -0.017090 0.515369 -0.032779 -0.398739 -0.229606 0.128298 0.348346 0.324165 -0.347791 0.328524 0.155745 0.421813 -0.357718 0.618617 0.870568 -0.283688 0.387692 0.086643 0.220546 0.217154 -0.112041 0.187733 -0.001805 -0.004629 -0.030556 -0.109144 0.100502 -0.519877 0.261171 0.544390 -0.679851 -0.611004 0.049856 -0.554044 -0.486740 -1.123810 0.276442 -0.061155 0.150897 0.521915 -0.501435 0.142166 -0.220392 0.100452 -0.165935 -0.040043 -0.001838 -0.001305 -0.033571 0.137642 1.357803 0.115907 -0.051255 0.504991 0.685856 0.542316 -2.061461 -0.241786 -0.505834 0.320473 -0.706409 -0.638408 -0.272393 -1.282411 -0.528230 0.190642 -0.783655 -0.202767 0.022272 0.011722 0.003064 -0.015483 0.010415 0.165563 0.099967 -0.231183 0.269112 1.351724 -0.391065 -0.697059 1.251310 0.136884 -0.390594 0.629960 -0.498709 -0.377221 -0.702189 -0.024280 -0.539550 -0.488183 0.308130 0.034910 0.031200 0.294125 0.002299 0.011525 0.005701 -0.140490 0.123427 -0.136270 0.575925 -0.228980 1.141598 0.327467 -0.381548 -1.144612 0.573111 0.325295 -0.252779 -0.865425 0.386186 -0.100509 0.255554 -0.830144 -0.719211 0.095366 0.066948 -0.017743 0.004883 0.004292 -0.022067 -0.672938 -1.176794 0.651783 -0.134069 -0.209385 0.184335 -0.317610 0.129558 -0.371777 -0.110639 -0.600932 -0.056392 0.732874 -0.064591 0.398771 0.108097 0.657335 -0.111563 0.012062 -0.189322 0.085521 0.014788 0.001586 -0.018794 
-0.250591 0.336239 0.407537 -0.183019 -0.345360 -0.339912 0.149223 0.575304 -0.403911 0.264702 -0.748671 0.143030 -0.324842 -0.530937 -1.210763 0.026136 0.714829 0.226584 -0.114242 -0.267246 -0.143172 0.002451 0.010603 -0.029747 0.022090 0.476494 0.327743 -0.098831 -1.164126 -0.039920 0.519633 -0.192424 0.551272 -0.956638 0.713881 -0.163117 0.347132 0.594038 0.305250 0.353284 0.094971 -0.378077 -0.334101 -0.054647 -0.128631 0.015489 0.001130 -0.040100 -0.270344 0.144627 -0.059287 0.127730 -0.016444 0.494270 -0.572315 -0.421368 1.115911 -0.172088 0.196845 0.273374 0.524757 -0.561484 -0.701757 0.172653 -0.250871 -0.477921 -0.674766 0.290162 -0.599551 0.007249 -0.014544 -0.023538 -1.296939 0.076137 0.242243 -0.785833 -0.350525 -0.580447 0.685641 0.685726 -0.272357 0.874621 -0.798152 -0.666265 0.210977 -0.191733 0.418310 -0.685908 0.216220 -0.236078 -0.303757 0.265022 -0.227940 0.008465 0.006603 -0.017418 1.063840 -0.355258 0.415319 -0.170910 0.593103 -0.895937 0.496204 0.168590 0.677780 0.452290 0.414410 0.266950 -0.378677 -0.499047 0.194998 0.190776 0.233036 0.588124 -0.179631 -0.174677 -0.205186 -0.002126 -0.002194 -0.047443 -0.371894 -1.074474 0.622014 -0.216120 -0.241464 -0.347583 0.195956 0.533117 0.451333 0.397643 0.439523 -0.215006 -0.651481 -1.182490 1.057898 0.361070 -0.949843 0.923299 0.073009 0.024947 -0.042588 -0.009872 -0.009526 -0.062987 0.263388 0.592211 -0.330612 0.104143 0.547923 0.171095 0.560110 -0.477570 -0.215206 0.123434 0.164146 -0.923609 -0.123399 1.262546 1.339131 0.530914 -0.014934 0.839794 0.223664 0.081598 -0.139221 -0.012054 0.001229 -0.044144 0.854858 0.259727 -0.104775 0.133722 -0.345407 0.601135 -0.404059 -1.068519 0.962648 -0.765023 -0.955503 -0.476662 0.151265 0.748582 0.022522 0.476472 0.216322 -0.352238 -0.125431 -0.070046 -0.018212 0.006365 0.016125 -0.027937 -0.082111 0.337308 -0.411437 -0.430100 0.073267 -0.247468 -0.012147 -0.447087 0.894024 -0.621710 0.412924 -0.365034 0.280694 -0.583359 0.699815 -0.033489 0.651293 -0.119184 0.182255 0.340004 -0.469197 0.006967 -0.006329 -0.046610 0.330880 -0.524255 -0.211435 0.815894 -0.983611 -1.254411 -0.751455 0.453159 -0.054702 -0.143021 -0.660311 -0.666008 -0.390639 0.578288 0.147989 0.431653 0.354299 -0.825865 0.079866 -0.024090 0.074306 0.004577 0.001390 -0.022133 -0.068292 0.694863 0.072524 0.008706 -0.420556 -0.294399 0.241643 -1.447362 1.210105 -0.145173 -0.002834 0.989288 0.391306 -0.950661 -0.663767 -0.062325 0.449900 -0.606391 -0.182269 -0.214029 -0.091375 0.013370 -0.000710 -0.036405 0.023127 -0.172785 0.707995 -0.206598 0.759903 -0.515633 0.935393 1.687983 0.094325 0.537181 0.197375 -0.654703 -0.554235 0.656012 -0.066845 -1.294916 -0.022450 1.323521 -0.105907 -0.319455 -0.846681 0.001875 -0.007409 -0.057685 0.627242 0.224503 0.146702 -0.494317 -0.044984 0.048588 -0.029563 0.547833 0.895818 1.041754 -0.764053 -0.629940 0.500753 0.636676 -0.608347 0.372981 -0.267318 -0.713314 -0.089672 -0.113053 0.049710 -0.013583 -0.000338 -0.014689 -0.049578 0.183568 -0.917376 0.054465 -0.305544 -0.038905 -0.046854 1.151445 0.289923 -0.003465 -1.496846 -0.091595 -0.626586 0.010593 0.425134 -0.027862 0.100395 -0.158463 -0.089657 -0.056074 0.201020 0.002149 0.002325 -0.017022 -0.005172 -0.929381 -0.046168 -0.633430 0.196738 -0.452606 -0.010798 0.064939 0.175349 0.124713 1.921510 -0.246879 -0.646429 -0.345970 0.120872 1.190676 -0.234007 0.613072 -0.077966 0.080367 0.133142 -0.010601 -0.000277 -0.036404 0.390414 0.209442 0.100906 -0.029234 0.277232 -0.691043 -1.318541 -0.217267 0.772394 -1.028563 -0.725489 -0.294715 -0.168051 0.371713 0.071226 1.322372 0.258453 0.743230 0.042580 0.023659 0.085477 -0.007641 0.012057 -0.051930 
0.415625 -0.289123 0.669169 -0.009272 0.451404 -0.776530 0.915988 -0.202197 0.961509 0.703816 0.748547 -1.059700 -0.643675 0.785585 -1.368455 -0.544832 0.045420 0.397645 0.110735 -0.229532 0.137175 -0.004808 0.001780 -0.012026 0.161486 0.202532 -0.211795 0.137836 -1.120714 0.107537 0.095880 0.191334 0.050071 0.207279 -0.569214 -0.150362 -0.794167 -0.234391 0.925327 -0.653579 -0.402255 0.290498 0.128726 -0.017193 -0.088517 -0.000285 0.005545 -0.031063 -1.177888 0.154458 -0.738762 0.310497 0.602431 0.050280 0.048031 0.255348 -0.046986 0.616246 0.480716 0.697139 0.115183 0.567942 -0.208785 1.175586 -0.031313 0.447722 0.146558 0.236447 0.082289 -0.001708 -0.001783 -0.016888 -0.375107 -0.037668 -0.081398 0.491497 0.138032 0.122152 0.256822 -0.344562 -0.121007 0.132097 0.525107 -0.387415 -0.255920 -0.168302 -0.238775 0.351274 0.109205 0.153894 0.052963 -0.001151 0.416850 0.005429 -0.006998 -0.016751 0.392615 -0.598446 0.085852 -0.144640 -0.654636 -0.617637 0.076261 0.251048 0.393484 -0.195763 0.203909 -0.442263 -0.439019 -0.009292 0.003886 0.258350 -0.277606 0.088980 -0.018005 -0.250706 0.159418 -0.001578 0.004973 -0.041559 0.046685 0.073291 0.101934 0.569531 0.884282 -0.365205 -0.079607 -0.654656 1.154850 -0.152756 -0.324738 -0.029085 0.195734 -1.231123 -0.245682 -0.011945 0.266248 0.218025 0.092035 0.099836 -0.223829 0.009739 -0.013826 -0.032886 0.959979 0.619358 -0.059590 -1.386804 -0.940518 -0.192704 -0.566180 0.227175 0.682420 -0.312598 0.540453 -0.128722 -0.257380 0.328472 -0.190811 -0.943862 0.129410 -0.037097 0.128601 0.148685 -0.073668 -0.011062 -0.002277 0.005552 -0.223641 0.387354 0.483110 -0.822394 0.377578 -0.086017 0.285904 0.326627 -0.355845 1.001476 -1.231044 0.943114 -0.386278 0.552185 0.196637 0.175313 0.088368 -0.457205 -0.034972 0.038416 0.247118 -0.005221 0.012479 0.014883 -0.260387 -0.274386 -0.855559 -0.911564 0.215920 0.368751 0.288550 -0.361865 -0.411301 -0.728379 0.740998 1.123401 0.972597 -0.341092 -0.597654 -0.462669 -0.242858 1.321962 0.292900 -0.027207 -0.181424 0.009987 0.004762 -0.034049 -0.345496 0.795669 0.979500 -0.734609 0.044663 -0.070278 0.411076 -0.536389 -0.481662 0.564172 -0.102220 -0.387804 0.097367 0.298231 0.284300 -0.398084 -0.521933 0.475768 0.355779 0.120974 -0.449477 -0.014605 -0.006675 -0.046462 0.509164 0.471806 0.015603 1.706867 -0.231971 -0.185320 0.393458 0.177315 -0.404025 -0.763455 -0.187791 0.427026 -0.337431 -0.937571 0.781418 0.150019 0.243909 -0.517266 0.210590 0.278083 -0.148835 0.002883 -0.002297 -0.015039 0.290642 0.055519 -0.204499 0.667702 0.069781 0.105615 -0.580497 0.374284 -0.254438 0.295509 -0.814968 -0.289542 -0.056824 0.490436 0.373275 -1.921671 0.661824 0.282251 0.071434 -0.280780 -0.239446 -0.011492 0.007815 -0.019621 0.251243 0.158836 -0.345986 -0.162526 -0.519984 -0.163446 -0.149718 -1.037328 0.077846 -0.893849 0.415353 -0.024349 0.006863 -0.556613 -0.456568 0.112398 -1.232330 -0.853350 -0.067056 0.079659 0.313770 -0.003443 -0.018787 -0.015387 0.061770 0.563986 0.418139 -0.627842 0.002549 0.430763 0.361737 -0.693440 -0.357871 0.114539 0.594223 -0.397520 0.384068 0.761371 -0.015838 -0.213596 1.075104 1.098713 0.380706 -0.360670 -0.183592 0.005319 0.002737 -0.036052 -0.335673 -0.383576 0.447347 0.156461 -0.434233 0.124966 0.063531 0.197867 0.062290 0.369713 -0.513294 0.531069 0.086495 0.127578 -0.882981 0.097555 -0.151018 -0.590882 0.080989 0.074250 -0.140021 0.008275 0.003694 -0.036360 -0.291369 0.440235 -0.647842 -0.730307 0.061751 0.141909 -0.407825 -0.105911 -0.057791 -0.647029 -0.717392 -0.046455 0.259884 0.000811 -0.425930 1.763717 0.674715 0.151787 -0.123078 0.079687 0.002302 0.007681 0.011471 -0.021355 
0.133835 -0.618401 -0.195292 -0.069236 -0.839922 1.336053 0.671680 -0.285664 -0.360854 0.305187 0.653723 -0.943269 -0.724755 0.097223 0.437400 -0.528155 -0.201015 -0.217544 -0.133223 -0.002584 -0.007648 -0.000222 -0.007228 -0.006731 -0.279065 0.661472 0.145241 -1.143874 -1.246516 -0.445296 0.707509 0.721060 -1.165906 0.283924 -0.145823 0.880236 -0.287378 0.553211 0.613503 -0.649068 0.068593 -0.237232 0.121792 0.072552 -0.002158 0.006657 -0.003722 0.007899 -2.080626 0.035492 0.852754 0.134187 1.482011 0.011539 -0.231989 -0.366058 0.023028 0.157412 -0.157311 0.022060 0.133947 0.541403 -0.142455 0.009290 -0.482190 -0.372183 0.106802 0.063816 0.150868 -0.000748 0.015505 -0.012204 0.279435 0.154424 -0.461249 -0.726816 0.416309 0.221264 -0.397406 0.031808 -0.485913 -0.256291 0.089319 0.198115 -0.108318 -0.353630 0.230291 0.808824 -0.013604 -0.748875 -0.279244 -0.222432 -0.145930 -0.001534 -0.006785 -0.027898 -0.959795 -0.659592 0.619002 -0.088762 0.604885 0.120047 0.324250 0.510830 -1.417796 -0.107305 -0.474621 0.316000 0.828770 0.147009 0.591121 0.268050 -0.043797 -0.147959 0.010244 -0.000855 0.019297 0.011680 0.004605 -0.028369 -0.233350 -0.301003 0.098580 0.462459 -0.923443 -0.815747 -0.943948 0.263050 0.321954 -0.012343 0.179693 0.271485 -0.013317 0.983587 -1.385602 -0.289342 0.214765 0.327156 0.032288 0.058162 -0.167212 0.000606 -0.003108 -0.023100 1.936635 0.268668 -0.106021 -0.386531 0.304270 0.436468 0.671022 -0.706948 -1.063064 -0.690332 0.228727 0.334021 -0.120532 -0.752974 -0.886841 0.235972 -0.466392 0.124795 0.039618 0.125545 0.092789 0.009788 -0.013452 -0.014126 -0.258377 -0.008560 0.591489 -0.027752 -0.570482 1.081982 0.940668 0.531263 -0.216150 0.956789 0.018853 0.497682 -0.251842 0.193979 -0.303314 0.312679 0.573652 0.610609 0.189896 -0.204396 0.093811 -0.005799 0.008020 -0.042833 0.641275 0.089053 0.565335 0.686193 0.647208 -1.264303 0.346658 -0.190029 -0.226071 0.802586 -0.528471 0.421127 0.610337 -0.015328 0.168926 -0.527485 -0.565429 0.704142 -0.092933 0.132474 -0.193739 -0.002317 -0.002505 -0.039719 0.440985 -0.124695 -0.187248 -0.138380 0.336016 -0.396453 0.208733 0.135035 0.397617 0.373807 0.176386 0.513027 -0.700360 0.809274 -0.254399 0.273656 -0.494646 0.635001 0.300646 0.232356 -0.175883 0.000005 -0.010265 -0.032148 0.315239 -0.609999 0.013089 -0.853228 0.101054 0.179011 -0.501382 -0.126363 0.209968 -0.451990 -0.495808 -0.135190 0.494074 -0.557252 0.541490 -0.936717 1.093236 -0.398988 0.248791 0.001120 -0.009822 -0.013747 0.018850 -0.010769 -0.776473 -0.094936 -0.208935 0.005466 -0.054545 0.538763 0.333420 -0.100631 -1.127781 -0.497496 0.331470 0.270624 1.019993 -0.274887 -0.636152 -0.344289 -0.353679 0.090571 -0.163188 -0.210961 0.012895 0.002448 -0.000284 -0.027099 -0.348100 0.197955 -0.364303 -0.593096 0.226214 0.232430 -1.222785 -0.400575 0.291148 -0.029505 0.522657 0.030168 -0.303516 0.701031 0.274475 0.373534 -0.292431 0.030435 0.022960 0.178360 0.013739 -0.010989 0.003374 -0.030986 -0.023015 -1.755476 -0.629008 0.670036 -0.050435 -0.111132 0.478960 0.096844 -0.474519 -0.212832 -0.580073 -0.775363 -0.080481 -0.624227 0.660289 -0.637156 0.595852 -0.259773 0.177752 -0.005063 0.094403 -0.011468 -0.010847 -0.001013 -0.124929 1.645282 -0.523149 0.217347 0.101140 0.177197 1.012214 -0.041944 0.292513 0.131302 0.176957 -0.175671 0.003167 0.409847 -0.071976 0.148963 0.280423 0.051917 0.181134 -0.049021 0.238687 0.000003 0.005341 -0.004480 0.792576 -0.184450 0.047219 0.128776 0.260181 0.060883 0.357523 0.067118 -0.336300 -0.437755 -0.673047 0.506594 -0.718552 -0.665372 0.831168 0.098492 -0.102789 0.867632 0.048476 -0.116986 0.074313 0.002016 -0.003640 -0.036196 
-0.348692 -0.098835 -0.700374 0.130860 -0.269287 -0.045326 -0.644947 0.007349 0.103636 -0.048841 0.187201 0.176087 0.425698 -0.435664 -0.045586 0.084288 0.399960 -0.777127 -0.203647 0.182155 -0.041152 -0.004428 -0.008291 -0.012775 0.141063 0.214575 -0.677529 0.192762 0.104984 0.843225 -0.205747 0.119758 -1.155206 0.429087 0.000326 -0.207518 -0.237387 0.778331 -0.125363 0.117513 -0.101789 -0.454943 -0.287104 0.291537 0.111689 -0.004811 -0.011203 0.013882 -0.396799 0.006625 0.322184 1.116868 0.021052 0.956152 0.671073 -0.457140 -0.223026 0.547037 -1.177375 0.226761 0.024988 -1.136917 0.310378 -0.164208 0.271073 -0.511424 -0.233023 0.230874 0.152845 0.012688 0.007177 0.017387 0.066357 -0.284643 -0.490105 0.932618 -0.917567 0.762506 -1.061778 0.522358 0.393526 0.262177 0.319722 0.493064 -0.000276 1.307558 -0.192814 -0.332772 -0.659785 0.063949 -0.145283 0.068095 0.194840 0.007926 0.000975 -0.014468 0.385500 0.129241 -0.490472 -0.003365 -0.208317 0.559509 0.321535 1.199082 -0.545446 -0.286530 0.206655 -0.162909 -0.880073 0.170238 0.370361 0.848570 0.024952 0.288924 0.041983 0.195414 0.226783 -0.010034 -0.007526 0.015655 0.016456 0.027625 0.080492 -0.267836 -0.307161 0.209732 0.344211 0.192761 -0.558276 0.312299 0.192292 0.245320 -0.164160 -0.014405 1.013860 0.215172 -0.524890 -0.050825 -0.028768 0.082254 0.473218 0.003017 0.018677 0.008229 -0.442369 -0.333912 -0.253101 0.020580 0.821168 -0.302564 -0.799459 -1.413370 0.321814 0.397502 -0.443850 0.344397 0.674825 -0.007538 0.418996 0.671406 -0.842247 -0.764328 -0.212952 0.209160 0.076547 -0.010619 -0.000387 0.001611 -0.461142 0.069350 -0.788735 -0.940869 -0.539705 0.862056 0.901832 0.812200 0.281041 -0.145912 -0.081270 -0.097656 -0.265645 -0.194377 0.428456 0.009124 -0.140100 0.314744 -0.130479 0.189025 0.249378 -0.006960 -0.009551 -0.018009 -0.883019 0.597314 0.056732 0.253828 -0.157363 0.252314 -0.692235 -0.738889 -0.500474 0.068769 0.129097 0.518806 0.492204 -1.022019 -0.066521 -0.238188 0.665310 -1.158528 -0.147955 0.078131 0.328902 0.020932 0.011645 0.014037 -0.139165 0.157276 -0.453625 0.254509 -0.102308 -0.182846 -0.679325 0.497802 0.271920 -0.246535 0.277348 0.572676 -0.688327 1.155709 -1.212174 -0.113726 -0.786031 0.150184 -0.258129 0.099154 0.131152 0.017190 -0.015846 -0.019377 0.344292 -0.001587 0.012458 -0.159496 0.241465 0.159121 0.098080 -0.422198 -0.543350 -0.720747 0.621681 -0.059900 -0.091911 -0.750969 0.033618 0.328852 0.301687 0.120997 -0.097640 0.337508 -0.035141 0.014272 -0.004763 0.000682 -0.194296 -1.242938 1.526448 -0.004395 -0.479000 0.161685 -0.338649 0.444738 -0.064979 0.518070 -0.108165 -0.405079 -0.221768 0.583100 -0.450863 0.937188 -0.684451 -0.845636 -0.145465 0.038300 0.268712 0.011261 -0.004451 0.006539 0.815211 0.035146 -0.343424 -0.076492 0.823242 0.098183 0.342579 0.628020 -0.648593 0.552720 -0.318473 1.044673 -0.083568 0.033890 0.179537 0.136889 -0.780680 -0.229293 -0.121470 0.076892 0.284672 0.001380 0.002874 -0.009827 -0.436190 0.686300 0.246100 -0.089578 -0.527096 0.458879 0.293183 0.244651 -0.046843 -0.590313 0.070121 -0.085149 0.917426 0.678222 0.654084 0.301649 -0.431860 0.360797 0.035630 0.088036 0.298084 -0.011633 -0.005544 -0.027657 0.402338 -0.250506 -0.379191 -0.385131 0.292268 -0.086884 -0.287717 0.124967 -0.825669 0.032496 0.419148 -0.306617 -0.025504 0.403071 0.059963 -0.240924 0.126583 -0.211653 0.067413 0.097257 0.246580 -0.016823 -0.003734 -0.012124 0.300073 -0.572801 -0.523703 0.183972 -0.301295 -0.703000 -0.190070 0.420172 -0.379368 0.105472 -1.035216 0.094606 -0.294101 -0.110090 -0.696356 0.107447 0.403985 0.347334 0.012933 0.003432 0.314415 -0.007874 0.008049 0.012774 