1.303160 3.910590 13.179500 10.032700 12.268500 12.510900 1.194310 1.895950 11.886300 0.008900 3.909740 11.074900 1.143770 0.002342 10.286300 9.913470 1.858920 9.709300 1.240210 4.143150 8.678590 10.122900 12.403700 8.048150 1.213150 2.168670 7.237490 0.017939 4.274440 6.448310 1.184430 6.214910 5.828810 0.066742 2.242440 4.938310 1.403870 4.200450 3.936610 0.000000 6.215940 3.593180 1.266400 2.055980 2.900450 1.322730 0.160929 5.980330 0.000000 0.011887 3.593180 1.317150 10.275700 13.494600 0.074772 5.904850 12.706300 1.147880 8.302640 12.206800 0.059673 10.187900 11.026900 1.258790 6.159520 10.559800 10.086200 8.239760 9.472800 1.296680 10.298800 8.811800 10.078600 6.145810 8.117210 1.282270 8.278940 7.319250 0.059509 10.363200 6.525670 0.094461 8.485640 5.012110 1.408540 10.441500 4.222230 1.266400 8.260030 2.900450 3.796430 0.071386 5.746210 2.532790 0.011887 3.593180 3.872960 4.035500 13.209600 2.450630 12.331100 12.361300 3.683830 1.861100 11.731200 2.507180 4.068890 11.017600 3.673130 12.346700 10.288700 2.266310 2.064950 9.650260 3.831820 4.049700 8.899330 2.456660 12.342600 8.082570 3.846670 1.923290 7.463840 2.562280 4.094080 6.532350 3.633120 6.161770 5.858060 2.622350 2.101980 5.144250 3.744790 4.137200 4.062770 2.532790 6.215940 3.593180 3.799190 2.055980 2.900450 3.732220 10.120500 13.347200 2.600940 6.344240 12.676700 3.808990 8.166490 11.892400 2.367130 10.222100 11.153100 3.772190 6.122110 10.394700 2.662210 8.260500 9.679070 3.934740 10.243100 8.811190 2.497350 6.134920 8.110040 3.699300 8.314900 7.419650 2.446700 10.390500 6.531630 2.508250 8.395320 5.198180 3.875500 10.415500 4.347860 3.799190 8.260030 2.900450 6.322790 0.036462 5.784100 5.065590 0.011887 3.593180 6.535930 3.805480 13.143800 5.011410 12.216100 12.635100 6.118130 1.784530 11.945900 5.049520 3.942180 11.090700 6.137800 12.241800 10.396800 4.987510 1.959240 9.699380 6.148000 4.030780 8.789990 5.024660 0.065803 8.157980 6.378430 2.178700 7.283720 5.107520 4.122680 6.509940 6.296110 6.344450 5.800450 5.163400 2.064020 5.086730 6.416520 4.176020 4.149740 5.065590 6.215940 3.593180 6.331980 2.055980 2.900450 6.217240 10.328200 13.728600 5.063190 6.123380 12.661100 6.452600 8.069920 11.691800 5.069690 10.212300 11.117900 6.356790 6.231630 10.326600 5.080010 8.178080 9.551330 6.639250 10.288300 8.835920 4.905420 6.127490 8.046710 6.218940 8.507470 7.414190 5.068300 10.423600 6.568920 5.089990 8.246400 5.082840 6.383820 10.306800 4.296010 6.331980 8.260030 2.900450 8.800700 12.373500 5.757810 7.598380 0.011887 3.593180 8.967380 4.015480 13.326000 7.354620 12.348700 12.628000 8.593950 2.022590 12.155400 7.669510 3.862660 10.965500 8.796470 12.142800 10.322300 7.645060 1.931820 9.591730 8.829240 4.244400 9.000340 7.500570 0.114573 7.930240 8.937330 2.239550 7.383500 7.853850 4.121890 6.541520 8.825800 6.209760 5.756970 7.680800 2.147200 4.992400 8.790240 4.058560 4.061890 7.598380 6.215940 3.593180 8.864770 2.055980 2.900450 8.669020 10.296900 13.230900 7.692380 5.896760 12.461500 8.796910 8.109000 11.830500 7.564140 10.160200 11.112300 8.871390 6.154050 10.337600 7.710760 8.163270 9.432740 9.101640 10.254500 8.648540 7.456010 6.090950 7.916180 8.861600 8.240050 7.078210 7.672110 10.340000 6.622260 7.584630 8.352240 5.043370 8.936340 10.323600 4.103640 8.864770 8.260030 2.900450 
1.175920 4.003770 13.397900 10.104300 12.306000 12.665100 1.240990 1.875790 11.944500 10.107700 3.857970 11.057300 1.110450 12.397600 10.396100 9.941240 1.907510 9.611080 1.355690 4.130250 8.843140 9.964830 0.058262 8.077230 1.030970 2.086760 7.453450 9.992370 4.211480 6.731480 1.337850 6.155260 5.892540 9.974090 2.228610 4.938970 1.175560 4.238010 4.439840 0.000000 6.215940 3.593180 1.266400 2.055980 2.900450 1.326230 0.229102 5.915800 0.000000 0.011887 3.593180 1.245340 10.268800 13.448000 0.175031 6.147700 12.671100 1.272950 8.163130 11.857500 0.072056 10.280300 11.229400 1.288740 6.119150 10.515600 0.016683 8.250790 9.701700 1.238140 10.207600 9.017520 10.049000 6.245520 8.160660 1.202940 8.181710 7.362180 0.081421 10.360500 6.644690 10.058600 8.366490 5.048720 1.396300 10.227200 4.370180 1.266400 8.260030 2.900450 3.926270 0.119445 5.923590 2.532790 0.011887 3.593180 3.617170 3.958050 13.207300 2.625760 0.085778 12.818500 3.716580 1.897730 11.737000 2.383600 3.817530 11.068900 3.491560 12.321400 10.446100 2.426730 1.973300 9.480660 3.842600 4.051350 8.930210 2.424870 12.329200 8.181080 3.837390 2.148340 7.478620 2.630080 4.038180 6.573930 3.774560 6.092770 5.847290 2.487450 2.119390 5.166200 3.608170 4.170170 4.114910 2.532790 6.215940 3.593180 3.799190 2.055980 2.900450 3.777450 10.051300 13.704400 2.483780 5.971310 12.562700 3.892870 8.035010 12.122300 2.608450 10.298400 11.372600 3.774300 6.112260 10.541900 2.691920 8.248200 9.939270 3.833680 10.321100 9.030970 2.558570 6.278210 8.316940 3.772730 8.220600 7.451540 2.523480 10.192000 6.656210 2.500230 8.377670 5.290580 3.766590 10.406300 4.046900 3.799190 8.260030 2.900450 6.232490 0.049901 5.735880 5.065590 0.011887 3.593180 6.397280 3.861000 13.841700 5.106460 12.400900 12.545100 6.360730 2.110300 11.989100 5.062500 4.054600 11.090300 6.048180 12.271800 10.401700 5.151920 2.012450 9.536180 6.437010 4.129990 9.001530 4.917090 12.360300 8.164150 6.381300 2.115490 7.324140 4.929600 4.010250 6.673850 6.165650 6.151790 5.911610 5.229200 2.188840 5.157620 6.279480 4.254280 4.148000 5.065590 6.215940 3.593180 6.331980 2.055980 2.900450 6.239670 10.246500 13.487600 5.152500 5.985600 12.864300 6.371770 8.126560 12.206500 4.985110 10.223300 11.464700 6.221640 6.283400 10.433100 5.165320 8.435500 9.748410 6.355770 10.369700 8.940820 5.087100 6.397030 8.177970 6.455780 8.328940 7.403900 5.245700 10.287000 6.658270 5.032420 8.451410 5.339170 6.305130 10.170100 4.170370 6.331980 8.260030 2.900450 8.916570 0.219006 5.872870 7.598380 0.011887 3.593180 8.750340 4.044470 13.364100 7.644100 12.307900 12.659800 8.836400 2.114710 12.011100 7.548250 4.192810 11.234400 8.730650 0.032315 10.510200 7.449380 1.890290 9.496620 8.951210 4.201720 8.910510 7.334790 12.333300 8.076130 8.705530 2.139630 7.356520 7.536510 4.296600 6.721420 8.810050 6.338840 5.837340 7.589970 2.174250 5.098540 8.903660 4.293360 3.945530 7.598380 6.215940 3.593180 8.864770 2.055980 2.900450 8.926380 10.354200 13.464600 7.744250 6.186240 12.891700 8.843790 8.411860 12.079600 7.526370 10.338500 11.266000 8.790820 6.080300 10.503700 7.691850 8.193670 9.659390 8.628810 10.481900 8.863690 7.564750 6.163160 8.248630 8.686680 8.268490 7.428900 7.690600 10.509200 6.623810 7.522630 8.304190 5.065000 8.734900 10.397500 4.187520 8.864770 8.260030 2.900450 
1.397210 3.984710 13.402100 0.033094 12.245300 12.750100 1.326080 1.792640 12.054500 0.017241 3.697010 11.286800 1.287060 12.240000 10.442300 0.001017 1.997800 9.559320 1.353080 3.878570 8.872410 10.088000 12.398200 8.090590 1.360090 1.951900 7.378820 0.000264 4.070640 6.493030 0.919409 6.042670 5.823560 10.006900 2.192250 5.086660 1.229960 4.192070 4.290360 0.000000 6.215940 3.593180 1.266400 2.055980 2.900450 1.199310 12.392500 5.734880 0.000000 0.011887 3.593180 1.304630 9.900760 13.389300 0.142251 5.954690 12.629400 1.345330 7.970460 11.920600 0.082279 10.307200 11.290200 1.150060 6.033210 10.140800 0.106558 8.305360 9.743170 1.349120 10.125500 8.764590 10.038600 6.114860 8.154500 1.172660 8.049340 7.211500 0.034325 10.289000 6.618230 9.999580 8.100420 5.078800 1.253310 10.319700 4.352110 1.266400 8.260030 2.900450 3.933880 12.394200 5.783430 2.532790 0.011887 3.593180 3.830990 3.837060 13.385100 2.525240 12.006600 12.826000 3.835280 1.638430 12.059400 2.449710 3.912580 11.100700 3.856930 12.095700 10.549100 2.456270 1.946750 9.781090 4.129190 3.791670 8.831440 2.580660 12.214100 8.010280 3.702100 1.917340 7.340210 2.411540 4.292950 6.518180 3.815350 6.120230 5.707440 2.349080 2.116680 5.060970 3.765870 4.050760 4.205570 2.532790 6.215940 3.593180 3.799190 2.055980 2.900450 3.871260 9.891480 13.135700 2.597660 5.847900 12.726800 3.949490 7.843850 11.662900 2.516630 10.082800 11.144200 3.691390 5.824730 10.171100 2.705060 7.890800 9.621390 3.972480 10.089400 8.751360 2.413660 6.016570 7.975040 3.688790 7.933030 7.347000 2.653360 10.167800 6.408290 2.428970 8.029360 5.046830 3.880040 10.388100 4.101930 3.799190 8.260030 2.900450 6.407560 0.051841 5.937490 5.065590 0.011887 3.593180 6.477470 3.887200 13.551700 5.206510 12.120400 12.728400 6.469790 1.715890 12.187000 5.138010 3.784730 11.362100 6.407450 12.397500 10.624900 5.014960 1.777240 9.735190 6.380830 3.895460 8.930200 5.010970 12.203600 8.159290 6.183220 1.972240 7.487130 4.990390 3.995380 6.639570 6.294910 5.978200 5.835280 5.044290 2.163890 5.026900 6.277700 4.071410 4.381480 5.065590 6.215940 3.593180 6.331980 2.055980 2.900450 6.290030 10.093200 13.257300 5.064370 5.835940 12.725400 6.487880 8.021820 12.123000 5.113550 10.042300 11.128700 6.268710 6.137220 10.309300 5.074640 8.041080 9.483260 6.303230 10.165500 8.996350 5.116380 6.028470 8.021500 6.265750 8.127050 7.226270 5.180050 10.287600 6.450830 5.046010 8.265850 4.984590 6.476640 10.379600 4.259000 6.331980 8.260030 2.900450 8.874550 0.013528 5.623640 7.598380 0.011887 3.593180 9.166960 3.309120 13.671700 7.685510 12.106200 12.834900 8.980290 1.803980 11.953600 7.516300 3.786210 11.029100 8.838960 12.371800 10.386200 7.526650 1.928990 9.602400 8.860700 3.962460 8.990980 7.501690 12.230500 8.251490 8.784590 2.058450 7.302150 7.534470 3.967520 6.629800 8.703640 6.175200 5.887260 7.655970 2.055380 5.074310 8.802410 4.221930 4.246290 7.598380 6.215940 3.593180 8.864770 2.055980 2.900450 9.056140 10.091300 13.412500 7.685500 5.843220 12.600400 8.887010 8.104360 11.810100 7.696820 10.206200 11.155600 8.792430 5.904930 10.558000 7.812540 8.145310 9.690300 8.975240 10.388100 8.868300 7.534690 6.218470 8.151270 8.890060 8.279420 7.203120 7.659760 10.412600 6.523940 7.623350 8.365370 5.039820 8.992670 10.309900 4.226190 8.864770 8.260030 2.900450 
0.964945 3.807300 13.142800 0.055653 12.106300 12.735100 1.149940 1.728520 11.857900 10.095700 3.800090 11.065000 1.382970 12.225000 10.495000 10.077500 1.912630 9.488360 1.192870 4.214440 8.937980 0.106828 12.240800 8.172380 1.473610 2.057720 7.400960 0.153074 4.115160 6.602440 1.401410 6.194770 5.735880 0.080082 2.110210 5.139430 1.549340 4.166130 4.242730 0.000000 6.215940 3.593180 1.266400 2.055980 2.900450 1.255930 12.336600 5.858610 0.000000 0.011887 3.593180 1.408590 10.030100 13.309400 0.078454 6.049110 12.992300 1.357810 8.153360 11.866100 0.046703 10.223100 11.096300 1.306720 5.891810 10.379500 9.997410 8.141230 9.888260 1.189130 10.230100 8.924310 0.132078 6.290370 8.228050 1.180760 8.149450 7.419120 9.999610 10.225800 6.709910 10.050300 8.204580 4.992340 1.320670 10.165100 4.384200 1.266400 8.260030 2.900450 3.725860 12.215400 5.952920 2.532790 0.011887 3.593180 3.436500 3.562300 13.103700 2.429020 12.130400 12.604500 3.717580 1.761340 11.780200 2.426850 3.740270 11.079100 3.753380 12.172100 10.365500 2.372530 1.867700 9.547930 3.813650 3.978820 8.617920 2.535930 12.266900 8.360150 4.019180 1.959930 7.219880 2.767150 4.147970 6.420660 3.709750 6.302990 5.827100 2.593150 2.126800 5.042730 4.029820 4.104680 4.138560 2.532790 6.215940 3.593180 3.799190 2.055980 2.900450 3.786470 10.164500 13.280200 2.541990 6.014050 12.587600 3.843550 8.039620 11.950200 2.600140 10.041200 11.000200 3.677080 5.933850 10.344900 2.382800 8.045840 9.619390 3.864480 10.162900 8.854290 2.649070 5.987640 8.101430 3.899690 8.198960 7.522030 2.431040 10.210400 6.737000 2.717280 8.392160 5.204260 3.694750 10.412600 4.212000 3.799190 8.260030 2.900450 6.221310 0.074877 5.740590 5.065590 0.011887 3.593180 6.453560 3.869870 13.219200 5.219730 12.192800 12.459300 6.234680 1.736680 11.809000 5.100590 3.735270 11.013400 6.457360 12.177700 10.452800 4.982610 1.744690 9.411840 6.514620 3.966940 8.894190 5.099010 12.056000 8.021600 6.427170 1.851170 7.314750 5.300020 4.226010 6.630020 6.647640 6.221960 5.966740 5.244440 2.275000 5.122740 6.591270 4.172100 4.129180 5.065590 6.215940 3.593180 6.331980 2.055980 2.900450 6.492090 10.016000 13.302100 4.896810 5.828780 12.461200 6.459500 8.015350 12.107100 4.978040 10.099700 11.261300 6.190420 5.962900 10.292400 5.021150 8.020440 9.767840 6.289680 10.066400 9.062810 5.196620 6.124560 8.120230 6.341790 8.156330 7.379380 4.918830 10.130500 6.360740 5.173090 8.209540 5.036810 6.403660 10.393900 3.995110 6.331980 8.260030 2.900450 8.791150 12.290600 5.684950 7.598380 0.011887 3.593180 8.866220 4.233490 13.584100 7.744330 12.284700 12.838100 8.860770 1.961320 12.309800 7.485910 3.987410 11.115300 8.851910 0.062843 10.419700 7.541640 1.892240 9.720550 8.867480 3.939540 8.942960 7.688200 12.255800 8.202940 9.084870 1.882220 7.277670 7.753230 3.885920 6.661290 9.045830 6.003730 5.852170 7.561500 2.061220 5.112730 9.104720 4.230380 4.336500 7.598380 6.215940 3.593180 8.864770 2.055980 2.900450 9.021840 10.114700 13.631600 7.537460 5.902800 12.609100 9.015300 7.963330 12.269400 7.819740 9.992780 11.270600 9.039160 6.026090 10.577400 7.477620 7.890460 9.585750 8.683730 9.974260 9.042180 7.852250 5.979630 8.148590 8.878020 8.212440 7.456770 7.468530 10.410400 6.757310 7.590910 8.368650 5.052000 8.813390 10.565000 4.181910 8.864770 8.260030 2.900450 
1.186810 3.944690 13.105900 10.043700 12.013100 12.665900 1.276540 1.807480 12.001100 0.046597 3.903160 11.159100 1.363360 12.355600 10.510500 10.105500 1.983770 9.374790 1.292750 3.985990 9.031760 0.099862 12.209100 7.995570 1.285420 1.949520 7.401430 10.046700 4.049100 6.684770 1.170170 6.080250 5.993450 10.007500 2.121370 5.133690 1.279390 4.081970 4.246690 0.000000 6.215940 3.593180 1.266400 2.055980 2.900450 1.239450 0.023916 5.693160 0.000000 0.011887 3.593180 1.040080 10.058100 13.466300 10.084200 6.017120 12.843600 1.122340 8.045190 11.991300 10.024500 10.100700 11.241700 1.213250 6.010870 10.732900 0.065413 8.011430 9.795930 1.167810 10.208800 8.965880 0.058632 5.950800 8.231550 1.261210 8.256180 7.372760 0.084248 10.332200 6.657120 0.003833 8.248360 5.059360 1.352540 10.384000 4.179590 1.266400 8.260030 2.900450 3.741680 12.296400 5.725030 2.532790 0.011887 3.593180 3.873640 3.844040 13.319500 2.247730 11.997500 12.911800 3.901950 1.683760 12.011800 2.479580 3.790700 11.154300 3.877420 12.159100 10.299800 2.532750 1.725320 9.599910 3.676570 3.919300 8.923890 2.657480 12.218800 7.981400 3.833870 1.905880 7.362570 2.547520 3.887030 6.707400 3.587210 6.161860 5.676390 2.412270 1.961920 5.198740 3.698230 4.089680 4.459750 2.532790 6.215940 3.593180 3.799190 2.055980 2.900450 3.642210 9.862990 13.326400 2.501000 6.065660 12.747000 3.647200 7.998570 11.777300 2.412310 10.165000 11.256400 3.690330 6.032730 10.392400 2.377620 8.020870 9.736870 3.670290 10.009700 8.904630 2.493860 6.167610 8.091900 3.751120 8.154840 7.283840 2.401010 10.183300 6.743240 2.444270 8.319480 5.003220 3.965420 10.295400 3.934930 3.799190 8.260030 2.900450 6.262310 12.182900 5.664810 5.065590 0.011887 3.593180 6.382790 4.026600 13.517500 4.953930 12.127200 12.644900 6.425280 1.786150 12.269100 5.049690 3.928220 11.173100 6.492470 12.134600 10.518700 5.170560 1.866370 9.873330 6.075670 3.993230 8.865350 5.017830 12.336000 8.131480 6.429710 1.904620 7.431680 5.027240 3.993140 6.650180 6.094220 6.231410 5.917740 5.077750 2.055060 4.967860 6.320400 4.256530 4.410580 5.065590 6.215940 3.593180 6.331980 2.055980 2.900450 6.212440 10.170800 13.315900 4.917900 6.024280 12.544600 6.239870 8.039880 11.913600 4.944380 9.989450 11.101500 6.361850 5.984690 10.468000 5.001290 7.865810 9.602650 6.190100 10.275700 8.893410 4.925090 6.044700 8.020240 6.373510 8.133510 7.401110 5.053980 10.343000 6.560130 4.883110 8.245800 5.194760 6.349270 10.363300 4.138160 6.331980 8.260030 2.900450 8.799180 12.347100 5.785280 7.598380 0.011887 3.593180 8.935720 3.846520 13.305900 7.634650 12.039700 12.646200 8.799120 1.600700 11.887700 7.626630 3.789880 11.103600 8.894060 12.132400 10.320300 7.570590 1.849890 9.627290 8.749270 3.955360 8.927000 7.606130 12.205700 7.955850 8.843710 1.906330 7.310560 7.424750 4.122770 6.573340 8.846840 6.110460 6.083080 7.408980 1.909700 5.243870 8.895310 4.040600 4.269590 7.598380 6.215940 3.593180 8.864770 2.055980 2.900450 8.714540 9.993610 13.316000 7.501250 5.979570 12.681400 8.783830 8.014800 11.981100 7.460140 9.942900 11.162900 8.762650 5.996360 10.537900 7.580550 8.111350 9.704150 8.895870 10.232600 8.674290 7.612870 6.019790 8.191410 8.941320 8.150610 7.356300 7.521800 10.146500 6.509420 7.505100 8.146130 5.183370 8.889570 10.209300 4.340200 8.864770 8.260030 2.900450 
1.026890 3.767540 13.470800 0.078076 12.159800 12.784800 1.291130 1.840470 11.751100 9.983100 3.827450 11.072800 1.155540 12.267200 10.363000 10.038200 1.961610 9.463100 1.151360 4.057230 8.961030 0.155817 12.369700 7.950280 1.121760 2.117850 7.381020 9.924580 4.190220 6.427470 1.142910 6.194040 5.758130 9.990950 2.166540 5.138120 1.147900 4.283700 4.177090 0.000000 6.215940 3.593180 1.266400 2.055980 2.900450 1.293720 0.019144 5.811850 0.000000 0.011887 3.593180 1.254250 10.033800 13.461500 10.027100 5.944950 12.748000 1.159810 7.978270 11.974900 0.109990 10.141100 11.288600 1.272060 5.949160 10.562600 0.232690 8.131990 9.536430 1.253850 10.291600 8.874940 0.269702 6.048850 8.151520 1.336520 8.238700 7.307030 10.105100 10.310700 6.604830 10.013200 8.435020 4.933800 1.379040 10.302600 4.159560 1.266400 8.260030 2.900450 3.889120 0.047747 5.839730 2.532790 0.011887 3.593180 3.771940 3.805120 13.477500 2.599540 12.112300 12.792900 3.784590 1.673820 12.094800 2.523430 3.824800 11.213500 3.821940 12.325600 10.527200 2.456250 2.024420 9.542490 3.718440 3.963720 8.786110 2.652600 12.338700 8.167170 3.668430 2.020210 7.188830 2.413750 4.207330 6.513060 3.571640 6.488210 5.852400 2.383230 2.000750 4.984500 3.647460 4.101600 4.151310 2.532790 6.215940 3.593180 3.799190 2.055980 2.900450 3.768610 10.044900 13.394400 2.512290 5.772060 12.821100 3.763280 8.029300 11.973400 2.646930 10.288600 11.176800 3.922780 5.932320 10.625000 2.788730 7.979000 9.712490 3.830410 10.243100 8.983520 2.570460 6.110980 8.149490 3.917730 8.327070 7.334910 2.510160 10.230400 6.701500 2.284610 8.320910 5.071260 3.772100 10.230800 4.095030 3.799190 8.260030 2.900450 6.361730 0.043612 5.765830 5.065590 0.011887 3.593180 6.201650 3.934570 13.311100 5.259240 12.074400 12.735700 6.374340 1.753090 12.060200 4.881680 3.781540 11.291100 6.424240 12.303500 10.376100 4.947250 1.885300 9.662040 6.251840 4.045790 8.763380 5.103580 12.294000 7.989610 6.323090 2.122260 7.284370 4.703370 4.126370 6.505220 6.270640 6.295410 5.781120 5.118270 2.192210 5.182320 6.198560 4.246400 4.219190 5.065590 6.215940 3.593180 6.331980 2.055980 2.900450 6.460780 9.990090 13.516200 4.884070 5.852210 12.852700 6.393850 8.080660 12.302600 5.119280 10.177400 11.153900 6.470150 6.204880 10.285700 5.168210 7.984500 9.591730 6.251400 10.146800 8.904090 5.068420 6.085080 8.053900 6.384330 8.281330 7.423900 5.054100 10.278700 6.304860 4.967960 8.144050 5.079270 6.412870 10.377000 4.131550 6.331980 8.260030 2.900450 9.086460 0.109908 5.930820 7.598380 0.011887 3.593180 8.774770 3.751980 13.199100 7.745760 11.989900 12.907700 8.852450 1.593190 11.910100 7.338860 3.934600 11.063600 8.871240 12.188200 10.356300 7.548150 2.008840 9.643900 8.673760 3.906660 8.810360 7.772340 12.337100 8.184570 8.591750 2.134720 7.157590 7.309930 4.174890 6.557910 8.707920 6.254280 5.710980 7.537160 2.369630 4.969760 8.742140 4.264400 4.161390 7.598380 6.215940 3.593180 8.864770 2.055980 2.900450 9.130550 10.212600 13.924700 7.528370 5.864750 12.829500 8.786090 8.204680 12.078200 7.532270 10.172000 11.247600 8.906790 6.033960 10.409000 7.612210 8.094290 9.629600 8.995580 10.111800 8.833550 7.746550 6.166900 8.057030 8.791990 8.362900 7.145390 7.516550 10.298400 6.623850 7.630400 8.372170 4.967130 8.895660 10.505200 4.310370 8.864770 8.260030 2.900450 
1.329650 3.917300 13.427900 10.065100 12.211800 12.799500 1.091080 1.979680 12.099000 9.996790 3.965850 11.274800 1.100970 12.319900 10.431100 9.932280 1.907710 9.963460 1.091520 3.907500 9.023880 9.961670 0.075782 8.319310 1.262100 2.039030 7.260370 10.008400 4.283340 6.484000 1.297440 6.154790 5.887190 10.044700 2.101640 5.046600 1.379810 4.062080 4.485810 0.000000 6.215940 3.593180 1.266400 2.055980 2.900450 1.270640 12.381700 5.745440 0.000000 0.011887 3.593180 1.027800 9.917250 13.215700 0.062269 5.966490 12.762400 1.256020 7.902370 11.735900 10.071400 10.160200 11.115300 1.140380 5.800810 10.393600 0.130303 8.006580 9.582040 1.163090 10.230800 8.879820 10.116100 6.077130 8.115880 1.178120 8.281260 7.380980 10.051000 10.467600 6.668440 0.031705 8.475210 4.986510 1.098220 10.347900 4.287460 1.266400 8.260030 2.900450 3.852990 12.393500 5.805350 2.532790 0.011887 3.593180 3.690550 4.165140 13.595000 2.495180 12.181100 12.513800 3.561710 1.921500 12.199600 2.576640 3.973460 11.197400 3.582420 12.275500 10.283200 2.458230 1.943790 9.644310 3.752460 3.878560 8.924450 2.493740 12.370000 8.014600 3.785510 2.105670 7.207070 2.614550 4.106710 6.668790 3.699260 6.116780 5.807340 2.622260 2.187770 5.172550 3.863750 4.201700 4.298940 2.532790 6.215940 3.593180 3.799190 2.055980 2.900450 3.835260 10.147100 13.334900 2.529040 6.083210 12.660300 3.814800 8.118590 11.838500 2.405140 10.150100 11.311800 3.826280 6.211430 10.304100 2.556910 8.168980 9.567790 3.626280 10.367900 8.695990 2.510340 6.307930 8.286410 3.825240 8.218040 7.389430 2.431990 10.238900 6.437910 2.517710 8.147970 5.094180 3.686840 10.267200 4.234300 3.799190 8.260030 2.900450 6.324830 12.293500 5.657560 5.065590 0.011887 3.593180 6.333770 3.685900 13.526800 4.872770 12.162900 12.754800 6.051810 1.754660 11.944000 4.923050 3.914450 11.319200 6.160910 12.155400 10.280700 4.913640 1.800070 9.664880 6.142120 3.932940 9.045440 5.116280 12.255200 7.875760 6.334100 2.022130 7.569120 5.064210 4.006100 6.489700 6.300080 6.054130 5.894980 5.181190 2.064990 5.099730 6.265200 4.133420 4.146380 5.065590 6.215940 3.593180 6.331980 2.055980 2.900450 6.176550 10.051000 13.358600 4.878210 5.886490 12.762900 6.377070 7.996130 12.053500 4.742540 10.168300 10.984200 6.240430 5.841610 10.369600 5.135310 8.024100 9.730220 6.301240 10.188400 8.762010 4.877160 6.090770 8.040240 6.391200 8.181700 7.259110 5.098950 10.254500 6.502350 5.015010 8.192040 5.225140 6.173810 10.285000 4.139650 6.331980 8.260030 2.900450 8.886790 0.115273 5.820800 7.598380 0.011887 3.593180 8.859250 4.008120 13.578300 7.509500 12.044100 12.501700 8.564630 1.988560 12.532700 7.546210 3.711150 11.371000 8.657360 12.233100 10.474100 7.426440 1.940670 9.790590 8.803890 3.966330 8.983490 7.511510 12.398600 8.170160 8.827100 2.041800 7.341310 7.588880 4.065830 6.634480 8.752840 6.328690 5.905180 7.642420 2.039070 5.181250 9.017370 4.229980 4.050570 7.598380 6.215940 3.593180 8.864770 2.055980 2.900450 8.699330 9.963480 13.466900 7.455810 5.814140 12.646800 8.894090 7.992540 11.831000 7.365100 10.015300 11.038700 8.761850 5.887700 10.512300 7.666320 8.027730 9.705920 8.835410 10.086200 8.974930 7.635150 6.031350 8.119850 8.805260 8.082420 7.349200 7.521990 10.373600 6.767960 7.599390 8.303600 5.043210 8.794720 10.431700 4.197910 8.864770 8.260030 2.900450 
1.438140 3.936590 13.323900 10.081800 12.021400 12.716400 1.206360 1.928460 11.983200 0.051637 3.952150 11.247800 1.352380 12.294500 10.493600 9.988340 1.905190 9.538380 1.280390 4.006700 9.037360 10.127900 12.047500 8.220870 1.190920 1.877080 7.419230 0.111476 3.965110 6.680670 1.471350 6.088520 5.727160 0.073421 2.084790 5.242190 1.055500 3.960500 4.165680 0.000000 6.215940 3.593180 1.266400 2.055980 2.900450 1.430290 0.034908 5.873820 0.000000 0.011887 3.593180 1.147890 10.018500 13.413100 0.138795 5.978640 12.566900 1.378630 8.196640 11.862200 0.129979 10.207100 11.127500 1.299860 5.994480 10.538500 10.075300 7.967080 9.637320 1.314670 10.133500 8.973020 10.086600 6.004220 7.861480 1.163490 8.035840 7.364440 0.240234 10.333000 6.440230 0.087213 8.303130 5.013920 1.258770 10.371500 4.046730 1.266400 8.260030 2.900450 3.929140 12.295900 5.693190 2.532790 0.011887 3.593180 4.131710 4.078860 13.102500 2.413990 12.289800 12.844800 3.724790 1.922820 11.789500 2.552490 3.817880 11.204200 3.807480 12.193000 10.344300 2.401810 1.991020 9.582780 3.717040 3.907460 8.884040 2.575730 12.132400 8.120070 3.787240 1.893580 7.223620 2.554580 3.938440 6.601610 3.946770 6.272530 5.836640 2.567170 2.102340 5.020440 3.834620 4.169430 4.370120 2.532790 6.215940 3.593180 3.799190 2.055980 2.900450 3.814240 10.120100 13.260600 2.609920 6.024250 12.691200 3.759100 8.050720 11.892500 2.520390 10.169900 11.285500 3.816060 5.902520 10.474500 2.559550 8.086500 9.500390 3.925670 10.174600 8.971900 2.431090 6.057150 8.056200 3.892080 8.124580 7.319980 2.563480 10.204200 6.588860 2.453430 8.319410 5.092440 3.643860 10.305400 4.039220 3.799190 8.260030 2.900450 6.569460 12.298600 5.758330 5.065590 0.011887 3.593180 6.600070 4.067260 13.576300 4.742190 12.246100 12.538100 6.415060 1.843760 12.062800 5.087200 3.850130 10.900300 6.381100 12.287500 10.439000 5.037420 1.944200 9.594080 6.287450 4.122960 8.927120 5.365240 12.236200 8.005470 6.395020 2.150480 7.551110 5.065110 4.171700 6.561560 6.544290 6.094290 5.898030 5.123020 1.996020 5.001910 6.344270 4.048440 4.139880 5.065590 6.215940 3.593180 6.331980 2.055980 2.900450 6.210200 10.209900 13.517900 5.275020 6.159310 12.495000 6.477370 8.143260 12.027800 5.131870 10.074600 11.193500 6.542840 5.999310 10.429300 5.175950 8.064870 9.682650 6.358450 10.176000 8.886010 4.985130 6.091360 8.210270 6.250480 8.102740 7.284340 4.992800 10.177200 6.623840 5.056300 8.453850 4.977200 6.411170 10.342700 4.158270 6.331980 8.260030 2.900450 8.946810 12.333300 5.839930 7.598380 0.011887 3.593180 9.021740 3.847130 13.222800 7.446730 12.050800 12.654800 8.817670 1.809680 11.958200 7.515100 3.874470 11.230500 8.823820 12.286200 10.550900 7.472390 1.994760 9.740480 8.763010 3.970940 8.859790 7.764580 12.320600 8.171140 8.861310 2.034150 7.271320 7.540610 3.956530 6.538510 8.920310 6.171070 5.878750 7.546380 2.026800 5.119570 8.907400 4.224740 4.482080 7.598380 6.215940 3.593180 8.864770 2.055980 2.900450 8.973500 9.988700 13.186700 7.713530 6.238310 12.791400 9.153490 8.031340 11.931300 7.732670 10.005700 11.192000 8.981860 5.826570 10.573000 7.631330 8.071520 9.747820 8.972690 10.130100 9.058620 7.676100 6.099910 8.168360 8.770740 8.320000 7.274370 7.489990 10.209000 6.730630 7.698750 8.297550 5.057240 8.912500 10.367500 4.077570 8.864770 8.260030 2.900450 
1.360110 4.143160 13.467700 0.038716 12.146300 12.719600 1.123220 1.754030 11.973600 9.950300 3.863320 11.246100 1.270870 12.165300 10.528500 10.099700 1.843200 9.800630 1.148420 3.782040 9.111260 0.016791 12.135300 8.127170 1.248360 1.893580 7.402550 0.098436 3.896120 6.655890 1.333520 6.117570 5.894780 0.103062 1.990720 5.058000 1.326180 4.023280 4.317690 0.000000 6.215940 3.593180 1.266400 2.055980 2.900450 1.412560 0.025587 5.974870 0.000000 0.011887 3.593180 1.055540 9.909160 13.349500 10.129900 5.938060 12.879200 1.183240 8.006450 11.971900 10.105100 10.057400 11.102400 1.160530 5.773020 10.397900 0.004389 8.053750 9.721550 1.450090 10.021600 8.835110 9.952920 5.934810 8.303510 1.177530 8.082800 7.289830 0.029924 10.447900 6.638770 0.094422 8.344910 5.074960 1.381980 10.335900 4.296820 1.266400 8.260030 2.900450 3.895850 12.270100 5.866470 2.532790 0.011887 3.593180 3.748970 3.933420 13.404900 2.598190 12.045700 12.674200 3.857800 1.761930 12.076500 2.365830 3.749330 11.326100 3.808560 12.102700 10.374800 2.586910 1.815880 9.596360 3.968810 4.096240 9.029770 2.638310 12.210600 8.305760 3.949460 1.901850 7.371430 2.542020 3.875430 6.512180 3.883520 6.004180 5.827350 2.467560 2.020420 5.138950 3.777600 4.218920 4.129650 2.532790 6.215940 3.593180 3.799190 2.055980 2.900450 3.873560 10.088200 13.200000 2.563570 6.050060 12.748900 3.780700 7.866310 11.951000 2.630800 9.922770 11.009100 3.719900 5.829100 10.495300 2.524710 7.869870 9.612980 3.876340 10.063600 8.746010 2.389590 5.898810 8.158070 3.652320 8.109810 7.158210 2.370220 10.322100 6.498860 2.494640 8.476930 5.017560 3.951410 10.389100 4.216860 3.799190 8.260030 2.900450 6.367080 0.019918 5.941050 5.065590 0.011887 3.593180 6.046370 3.844840 13.381700 5.067760 12.056000 12.932600 6.419620 1.718400 12.009500 5.070050 3.799020 11.143300 6.205200 12.300300 10.493500 5.006980 1.902320 9.616880 6.316850 3.902510 9.105360 5.035330 12.205300 8.187250 6.335840 2.032270 7.565000 5.108550 3.908770 6.681940 6.348700 6.097860 5.989230 5.002770 2.262470 4.887500 6.481650 4.267550 4.263010 5.065590 6.215940 3.593180 6.331980 2.055980 2.900450 6.361730 9.751540 13.504000 5.003500 5.934850 13.021600 6.224610 7.848900 12.105200 5.093310 10.032700 11.188100 6.349810 5.996800 10.407600 5.145730 7.960940 9.636990 6.395490 10.160700 9.075720 5.020660 6.062880 8.136250 6.370220 8.293730 7.425580 5.106350 10.230200 6.574250 5.148170 8.434080 5.122890 6.485810 10.477700 4.335220 6.331980 8.260030 2.900450 8.901530 0.021011 5.760010 7.598380 0.011887 3.593180 9.083400 3.582980 13.518900 7.630870 12.084500 12.548100 8.889620 1.568550 11.972300 7.526890 3.756770 11.334700 8.755930 11.890000 10.158300 7.538270 1.884300 9.744250 8.860820 3.882390 9.094870 7.562070 12.357800 8.058670 8.969320 1.892090 7.421540 7.668430 4.089780 6.744750 9.027050 6.021450 5.852220 7.655200 2.242180 5.246320 8.977640 4.152410 4.283610 7.598380 6.215940 3.593180 8.864770 2.055980 2.900450 8.839560 10.148900 13.273800 7.761090 5.672750 12.981600 8.875830 7.978450 12.291700 7.610950 10.057000 11.078000 8.829540 6.021400 10.768300 7.629930 8.070770 9.770080 8.833040 10.071900 8.680440 7.551970 5.957550 8.217280 8.795220 7.979870 7.335140 7.694000 10.328000 6.456210 7.621890 8.301400 5.092950 8.994150 10.307700 4.145650 8.864770 8.260030 2.900450 