-1.603052799194522086e+05
-1.603051820692183101e+05
-1.603050573858380958e+05
-1.603051037476426864e+05
-1.603042303359431098e+05
-1.603065552362258022e+05
-1.603036774713596096e+05
-1.603042950701940863e+05
-1.603051562419408001e+05
-1.603063675530483015e+05
-1.603044443749792117e+05
-1.603047986225787026e+05
-1.603063086964563117e+05
-1.603046093599162996e+05
-1.603035386784684961e+05
-1.603047713182673033e+05
-1.603042080121313920e+05
-1.603042091140564007e+05
-1.603048636752029124e+05
-1.603042234426191135e+05
-1.603052755657667003e+05
-1.603053584252487926e+05
-1.603038541022251884e+05
-1.603043941522873938e+05
-1.603046263560109946e+05
-1.603043287721741071e+05
-1.603038340802245075e+05
-1.603048412394163897e+05
-1.603056978152962984e+05
-1.603051877018387895e+05
-1.603058516766277025e+05
-1.603048138688452891e+05
-1.603058062313025875e+05
-1.603043772676232911e+05
-1.603031002125862869e+05
-1.603048976536506088e+05
-1.603043523179129988e+05
-1.603041019958971010e+05
-1.603052538150268083e+05
-1.603070033749387949e+05
-1.603064621098882926e+05
-1.603047824701729114e+05
-1.603037028782212001e+05
-1.603051690715643927e+05
-1.603038602023372950e+05
-1.603051963546508923e+05
-1.603049757455620856e+05
-1.603050455423551903e+05
-1.603056911110914953e+05
-1.603052685600596888e+05
-1.603055106861426029e+05
-1.603053572084917978e+05
-1.603037461156144855e+05
-1.603049785764985136e+05
-1.603059487042613910e+05
-1.603047674996936985e+05
-1.603050004676491080e+05
-1.603045722161043959e+05
-1.603053669546573074e+05
-1.603068824022391927e+05
-1.603046212635365082e+05
-1.603041462572547898e+05
-1.603044887993331067e+05
-1.603041440114993020e+05
-1.603041017726277059e+05
-1.603042900997626130e+05
-1.603041877408743894e+05
-1.603045183766114060e+05
-1.603040952851614857e+05
-1.603058191866427951e+05
-1.603033245587506099e+05
-1.603044616015542997e+05
-1.603051505116313929e+05
-1.603044866503140074e+05
-1.603041657083606988e+05
-1.603039147505507863e+05
-1.603030881959029066e+05
-1.603058021072813135e+05
-1.603052383361028042e+05
-1.603041376949205878e+05
-1.603050660888552084e+05
-1.603051350845452107e+05
-1.603040973755400919e+05
-1.603054547998092894e+05
-1.603049609533174080e+05
-1.603051389710112126e+05
-1.603049919270839891e+05
-1.603046712690813874e+05
-1.603060365507740062e+05
-1.603046971050665015e+05
-1.603042818360732927e+05
-1.603036602677780902e+05
-1.603052004404402978e+05
-1.603071318952601869e+05
-1.603039812524532899e+05
-1.603057767857273866e+05
-1.603049528303109983e+05
-1.603038156623349932e+05
-1.603062175411754870e+05
-1.603055434536836983e+05
-1.603054994909708912e+05
-1.603057260653394042e+05
-1.603062786590335018e+05
-1.603065316496698943e+05
-1.603051476073604135e+05
-1.603050918984453019e+05
-1.603046667779785057e+05
-1.603053366394061886e+05
-1.603052375928238034e+05
-1.603036228953906102e+05
-1.603045595437625889e+05
-1.603055500601996901e+05
-1.603064787301938049e+05
-1.603041417114569922e+05
-1.603066121367274900e+05
-1.603054366436933051e+05
-1.603053169224451995e+05
-1.603046930364202999e+05
-1.603048345104492037e+05
-1.603045517394015042e+05
-1.603033910293600929e+05
-1.603044385326949123e+05
-1.603039126789481088e+05
-1.603040527061476023e+05
-1.603054443928152905e+05
-1.603063183280618978e+05
-1.603044564739770140e+05
-1.603061355177630903e+05
-1.603057735985940089e+05
-1.603059166349644947e+05
-1.603040634253922908e+05
-1.603038423177908990e+05
-1.603045932168985892e+05
-1.603042610200445051e+05
-1.603064383905408031e+05
-1.603040048109815980e+05
-1.603039877007351024e+05
-1.603049531409289048e+05
-1.603054654019089066e+05
-1.603036907388143882e+05
-1.603051282955768984e+05
-1.603039127231664897e+05
-1.603042302371657861e+05
-1.603055665534280124e+05
-1.603056017486327037e+05
-1.603050642813390878e+05
-1.603059559672521136e+05
-1.603047189615227107e+05
-1.603052115905772080e+05
-1.603061215317918104e+05
-1.603041881421062863e+05
-1.603047678718093957e+05
-1.603044210223050031e+05
-1.603048055201203970e+05
-1.603050879387806926e+05
-1.603048185398154892e+05
-1.603054879768817045e+05
-1.603049220377721940e+05
-1.603056212351132999e+05
-1.603054304184087960e+05
-1.603056824561025132e+05
-1.603047402668122086e+05
-1.603048975633087975e+05
-1.603052156897002133e+05
-1.603035769097834127e+05
-1.603037295931339904e+05
-1.603040116388621973e+05
-1.603051331553941127e+05
-1.603057651018392062e+05
-1.603057481091459049e+05
-1.603047473621807003e+05
-1.603030418388603139e+05
-1.603036293795912934e+05
-1.603050572583528119e+05
-1.603052725726504868e+05
-1.603050151837019075e+05
-1.603046948793113115e+05
-1.603029848390372063e+05
-1.603038480935432890e+05
-1.603047770160590881e+05
-1.603045786556784878e+05
-1.603037800554219866e+05
-1.603060751625041012e+05
-1.603043208283545973e+05
-1.603046185316496121e+05
-1.603041638502312126e+05
-1.603042971133608953e+05
-1.603034962583690940e+05
-1.603055837141514930e+05
-1.603054574971378024e+05
-1.603054896233064937e+05
-1.603059017492487037e+05
-1.603052325321866083e+05
-1.603052113500284904e+05
-1.603038919529888954e+05
-1.603056600589560985e+05
-1.603053486781308893e+05
-1.603051745698967134e+05
-1.603058571334627050e+05
-1.603056445973113878e+05
-1.603055973324970983e+05
-1.603048180855214014e+05
-1.603043455852722109e+05
-1.603048336878489936e+05
-1.603055259053338959e+05
-1.603040155085930892e+05
-1.603045996099411859e+05
-1.603056284315721132e+05
-1.603047456047334126e+05
-1.603043869577333098e+05
-1.603059098919834069e+05
-1.603053620801458892e+05
-1.603047888508343895e+05
-1.603040053941214865e+05
-1.603043221979035879e+05
-1.603054736072297965e+05
-1.603035187922526093e+05
-1.603044586246288090e+05
-1.603044139892506064e+05
-1.603042129248747078e+05
-1.603051170307440043e+05
-1.603061802324625023e+05
-1.603038942209217057e+05
-1.603053491664392059e+05
-1.603045790148687956e+05
-1.603047476680366963e+05
-1.603039165033721074e+05
-1.603049159501774120e+05
-1.603038461616710119e+05
-1.603049875295881939e+05
-1.603048356598580140e+05
-1.603065052841512952e+05
-1.603040847068718867e+05
-1.603047924768874946e+05
-1.603049297441724048e+05
-1.603066586998961866e+05
-1.603041383326193900e+05
-1.603047930588028976e+05
-1.603040053420116892e+05
-1.603053074829519901e+05
-1.603054414318084891e+05
-1.603059598850111943e+05
-1.603041733129901986e+05
-1.603036290417620039e+05
-1.603061407076544128e+05
-1.603046459370511875e+05
-1.603052895544591884e+05
-1.603041057805925084e+05
-1.603043412918600079e+05
-1.603054623399479024e+05
-1.603051678605217894e+05
-1.603053791752900870e+05
-1.603038166418086912e+05
-1.603056238777468971e+05
-1.603049701338942978e+05
-1.603031903854002012e+05
-1.603028583111333137e+05
-1.603049192910550919e+05
-1.603055667556085100e+05
-1.603051573520292877e+05
-1.603057829783582129e+05
-1.603041556990609970e+05
-1.603069541224688874e+05
-1.603043308983356110e+05
-1.603045660713656107e+05
-1.603050918657915900e+05
-1.603049140789865050e+05
-1.603046601177199918e+05
-1.603046608260323992e+05
-1.603048835905349115e+05
-1.603035824244426040e+05
-1.603060768240311882e+05
-1.603057564439930138e+05
-1.603046602875191020e+05
-1.603040338664815936e+05
-1.603027831395475951e+05
-1.603055853208476910e+05
-1.603042470372024109e+05
-1.603054053878806881e+05
-1.603037536182013864e+05
-1.603051445026774891e+05
-1.603042110662012128e+05
-1.603035012877132103e+05
-1.603034404920378875e+05
-1.603037960864650086e+05
-1.603042434061153035e+05
-1.603037177214871917e+05
-1.603050952034039947e+05
-1.603055671367039904e+05
-1.603065169815091067e+05
-1.603060420371333894e+05
-1.603044910185575136e+05
-1.603065753691128921e+05
-1.603053300998302002e+05
-1.603065838706296927e+05
-1.603061134894670977e+05
-1.603042343259484041e+05
-1.603058987266081967e+05
-1.603044836488983128e+05
-1.603049809550456121e+05
-1.603029404651604127e+05
-1.603048592684552132e+05
-1.603038273496245965e+05
-1.603037622197199962e+05
-1.603045753054129018e+05
-1.603063610642215936e+05
-1.603041320606674126e+05
-1.603047870365153940e+05
-1.603049241847503872e+05
-1.603033064833164099e+05
-1.603044884053122078e+05
-1.603055071731529024e+05
-1.603064675788324093e+05
-1.603050768158551073e+05
-1.603046142020462139e+05
-1.603058747248064028e+05
-1.603040663546978030e+05
-1.603057577690513863e+05
-1.603051857951371057e+05
-1.603052079764971859e+05
-1.603056354338775855e+05
-1.603040599877779896e+05
-1.603054637217420095e+05
-1.603038476143507869e+05
-1.603041370236157090e+05
-1.603036992016909935e+05
-1.603041236752071127e+05
-1.603055415660298895e+05
-1.603043161520781869e+05
-1.603053334705044108e+05
-1.603047797978789022e+05
-1.603043067280954856e+05
-1.603049235065066896e+05
-1.603045481028720969e+05
-1.603048880525217101e+05
-1.603041283562456083e+05
-1.603049657765353040e+05
-1.603053650336696010e+05
-1.603038826043817098e+05
-1.603048025252354855e+05
-1.603048165605954127e+05
-1.603048473157185072e+05
-1.603053912004090962e+05
-1.603045274649416970e+05
-1.603038174539325119e+05
-1.603051916672177904e+05
-1.603054312597847893e+05
-1.603041561517223890e+05
-1.603064024985886062e+05
-1.603034247740620049e+05
-1.603036155781132111e+05
-1.603053031745734042e+05
-1.603043201352806936e+05
-1.603049997846434126e+05
-1.603062536846968869e+05
-1.603072630882837984e+05
-1.603043972191465145e+05
-1.603063375561703870e+05
-1.603056757787009119e+05
-1.603050945733244007e+05
-1.603034887450337119e+05
-1.603051388465191121e+05
-1.603040903745949909e+05
-1.603046314203217917e+05
-1.603071393190700910e+05
-1.603039564337659103e+05
-1.603046656204061874e+05
-1.603044614640006912e+05
-1.603052676759618043e+05
-1.603052291232804128e+05
-1.603049479217854096e+05
-1.603031156119169900e+05
-1.603047657925875101e+05
-1.603055973552186042e+05
-1.603061661822723108e+05
-1.603035003724583075e+05
-1.603056331641761062e+05
-1.603062311472758884e+05
-1.603052571526390966e+05
-1.603052905680832046e+05
-1.603041598844440887e+05
-1.603046054207962879e+05
-1.603041605105779890e+05
-1.603053095526499092e+05
-1.603053888504338975e+05
-1.603031370229228050e+05
-1.603040285688331933e+05
-1.603061141282542958e+05
-1.603062790888372983e+05
-1.603042467244075087e+05
-1.603053596768364077e+05
-1.603058668475188024e+05
-1.603052623282445129e+05
-1.603046740224653913e+05
-1.603052576165932114e+05
-1.603045873737979855e+05
-1.603048480375004874e+05
-1.603042088622149895e+05
-1.603028439171272912e+05
-1.603053363765442045e+05
-1.603047657395252900e+05
-1.603053526633741858e+05
-1.603045874117577914e+05
-1.603053260178504861e+05
-1.603045083983328077e+05
-1.603042192113848869e+05
-1.603048657742890937e+05
-1.603044519351180934e+05
-1.603059100545714900e+05
-1.603038916529834096e+05
-1.603062423668018018e+05
-1.603064755304071005e+05
-1.603058083479402121e+05
-1.603047547627248859e+05
-1.603043533934429870e+05
-1.603050745922769129e+05
-1.603044581342797028e+05
-1.603045459384784917e+05
-1.603054600375927112e+05
-1.603065133119178063e+05
-1.603047304225495900e+05
-1.603049828542642063e+05
-1.603063549839738116e+05
-1.603053315067949006e+05
-1.603057381784871977e+05
-1.603034199852664897e+05
-1.603037722744627099e+05
-1.603059505682413001e+05
-1.603060218002987967e+05
-1.603047650803294964e+05
-1.603048357989082870e+05
-1.603045987042103079e+05
-1.603048482637632114e+05
-1.603048811439594137e+05
-1.603056056516976096e+05
-1.603037809034647944e+05
-1.603033279291526997e+05
-1.603055451643273991e+05
-1.603036753646541911e+05
-1.603062033629557118e+05
-1.603039830217375129e+05
-1.603060700769684918e+05
-1.603046499643361021e+05
-1.603048074392032868e+05
-1.603028802210598951e+05
-1.603052967907825951e+05
-1.603050239691695024e+05
-1.603058042824233125e+05
-1.603034077551097143e+05
-1.603043561303640017e+05
-1.603040003289944143e+05
-1.603048471958524024e+05
-1.603038210256989114e+05
-1.603057067789984867e+05
-1.603048242898531898e+05
-1.603038429352171952e+05
-1.603040193599564955e+05
-1.603047029606844008e+05
-1.603049405058666889e+05
-1.603066785867922881e+05
-1.603059149965670949e+05
-1.603060083177381021e+05
-1.603041346032991132e+05
-1.603047942186882137e+05
-1.603057324723959027e+05
-1.603041492175812891e+05
-1.603031547304590931e+05
-1.603063853551441862e+05
-1.603054366944424983e+05
-1.603040008121326100e+05
-1.603030685903725098e+05
-1.603060061069490912e+05
-1.603047375481227937e+05
-1.603044661986455903e+05
-1.603050791236526857e+05
-1.603050295065501996e+05
-1.603036653153538937e+05
-1.603043255062637036e+05
-1.603042882095238019e+05
-1.603050760895833082e+05
-1.603047455093575991e+05
-1.603035824532867118e+05
-1.603047141034741944e+05
-1.603030261668715975e+05
-1.603062469091982057e+05
-1.603055194302489108e+05
-1.603028767133762885e+05
-1.603036807120993908e+05
-1.603049040539042908e+05
-1.603049193498315872e+05
-1.603044331221193133e+05
-1.603048259490673081e+05
-1.603039794639851025e+05
-1.603067603544176964e+05
-1.603037418794822006e+05
-1.603055044600417896e+05
-1.603036122900255141e+05
-1.603055194215411902e+05
-1.603054602718827082e+05
-1.603040459588126978e+05
-1.603045418813971919e+05
-1.603038379345810099e+05
-1.603034513914219860e+05
-1.603050854490750062e+05
-1.603033520674195024e+05
-1.603056807589284144e+05
-1.603064797608249937e+05
-1.603058542622535024e+05
-1.603042493075843086e+05
-1.603044781294770946e+05
-1.603042637029509060e+05
-1.603057098159251036e+05
-1.603046208201269910e+05
-1.603037119834224868e+05
-1.603039290525823890e+05
-1.603044408418530074e+05
-1.603036004061335989e+05
-1.603054210647674918e+05
-1.603037757814658980e+05
-1.603061902365919959e+05
-1.603047927929477009e+05
-1.603041226155958138e+05
-1.603031881263109972e+05
-1.603040338599508977e+05
-1.603052410244515049e+05
-1.603055758429864945e+05
-1.603055312979499868e+05
-1.603038550064594892e+05
-1.603036356481419061e+05
-1.603042426437883114e+05
-1.603043334281780117e+05
-1.603044580496523122e+05
-1.603036085076431045e+05
-1.603055784403131111e+05
-1.603051187624764862e+05
-1.603045453422770952e+05
-1.603056875262637041e+05
-1.603050316835969861e+05
-1.603049546155139105e+05
-1.603040533345945005e+05
-1.603052454482062894e+05
-1.603053229362971906e+05
-1.603046248814261053e+05
-1.603056463789767877e+05
-1.603057327250535891e+05
-1.603036345007738855e+05
-1.603047683409336896e+05
-1.603047029123840912e+05
-1.603049190573093074e+05
-1.603048607623603020e+05
-1.603049357875486894e+05
-1.603051884694719920e+05
-1.603047689485638984e+05
-1.603047520425388066e+05
-1.603049672433650121e+05
-1.603039382892147114e+05
-1.603039256446284999e+05
-1.603043872124319023e+05
-1.603042844944894896e+05
-1.603044590004179918e+05
-1.603059563706608897e+05
-1.603048544040120905e+05
-1.603057791895811097e+05
-1.603053503685021133e+05
-1.603047080243148084e+05
-1.603040651987582096e+05
-1.603047751384736039e+05
-1.603061918392064981e+05
-1.603049774904921069e+05
-1.603062671227669925e+05
-1.603051387303264928e+05
-1.603053098434034910e+05
-1.603045822969700093e+05
-1.603049143196711957e+05
-1.603042587269411015e+05
-1.603042646886832954e+05
-1.603060252781859017e+05
-1.603059814576526114e+05
-1.603061502908236871e+05
-1.603058922175088956e+05
-1.603048477829380136e+05
-1.603028325279383862e+05
-1.603056765564022062e+05
-1.603053376724864065e+05
-1.603052000749913859e+05
-1.603051757247479109e+05
-1.603047852411082131e+05
-1.603055389784993895e+05
-1.603032075168715091e+05
-1.603062738638432929e+05
-1.603043671720635903e+05
-1.603053281348962046e+05
-1.603053897312663903e+05
-1.603054408281238866e+05
-1.603063319163389097e+05
-1.603047316325039137e+05
-1.603040469299870019e+05
-1.603063117116137873e+05
-1.603047867419520917e+05
-1.603041366796637885e+05
-1.603056173136807047e+05
-1.603051463522352860e+05
-1.603041375977759890e+05
-1.603048442330769030e+05
-1.603048855241758865e+05
-1.603043553308935079e+05
-1.603040799729072896e+05
-1.603048212674846873e+05
-1.603062085454998887e+05
-1.603057120155573066e+05
-1.603058586069591984e+05
-1.603055764703449095e+05
-1.603041586882316042e+05
-1.603064528872698138e+05
-1.603047625525279145e+05
-1.603065574776275898e+05
-1.603057090115566098e+05
-1.603056629878534877e+05
-1.603039530179208086e+05
-1.603045006822725991e+05
-1.603062037975215062e+05
-1.603051286294604943e+05
-1.603055732379046094e+05
-1.603037941536403087e+05
-1.603045117091418942e+05
-1.603059314107462997e+05
-1.603044828185428923e+05
-1.603050436893959122e+05
-1.603040748592077871e+05
-1.603044405641607882e+05
-1.603056126549555920e+05
-1.603047946422334062e+05
-1.603070353612409963e+05
-1.603040701242909126e+05
-1.603068331742594892e+05
-1.603055149581939040e+05
-1.603056208303438907e+05
-1.603049966966955108e+05
-1.603044958376937138e+05
-1.603063619355300907e+05
-1.603047699213708984e+05
-1.603040362814920081e+05
-1.603036231226056116e+05
-1.603052835142120894e+05
-1.603053465646227123e+05
-1.603057201068625145e+05
-1.603033657204596093e+05
-1.603063305954982934e+05
-1.603039593169481086e+05
-1.603041314114037086e+05
-1.603043634743085131e+05
-1.603044751917360118e+05
-1.603030955772630114e+05
-1.603063813409208087e+05
-1.603059394210976025e+05
-1.603041716898310988e+05
-1.603044276545358007e+05
-1.603034282086828898e+05
-1.603052041044532089e+05
-1.603043791377256857e+05
-1.603053239878811873e+05
-1.603055109789370908e+05
-1.603041495668395073e+05
-1.603058281283038086e+05
-1.603043067415650876e+05
-1.603052212194617023e+05
-1.603036886303402134e+05
-1.603060169444271887e+05
-1.603059433339587122e+05
-1.603050113089368097e+05
-1.603050899362323107e+05
-1.603050417224210105e+05
-1.603048011099713040e+05
-1.603059752987638931e+05
-1.603050289553836046e+05
-1.603043125711960893e+05
-1.603061717265919142e+05
-1.603036502644649881e+05
-1.603064851311277889e+05
-1.603045933884663100e+05
-1.603064211904967960e+05
-1.603040866078590916e+05
-1.603060945892556920e+05
-1.603037954514872981e+05
-1.603045829006544955e+05
-1.603060314343534119e+05
-1.603047219562715909e+05
-1.603046389513445902e+05
-1.603039081970969855e+05
-1.603043849428663962e+05
-1.603040997642914881e+05
-1.603043905561669089e+05
-1.603032187644251972e+05
-1.603045173855728062e+05
-1.603038587795901112e+05
-1.603050608536569925e+05
-1.603042220319808985e+05
-1.603045808874201903e+05
-1.603059286425320897e+05
-1.603044534103833139e+05
-1.603065104832944053e+05
-1.603045068117729970e+05
-1.603046877424455015e+05
-1.603054972698416095e+05
-1.603042772710914141e+05
-1.603036740244934917e+05
-1.603038949541324982e+05
-1.603044130246069981e+05
-1.603048813494053029e+05
-1.603062331157473964e+05
-1.603036575674563937e+05
-1.603042464106603002e+05
-1.603051029304848053e+05
-1.603041654679480998e+05
-1.603044487720667967e+05
-1.603042147500783904e+05
-1.603050277775388095e+05
-1.603042107608894003e+05
-1.603056193949434091e+05
-1.603049105457242113e+05
-1.603036759419438022e+05
-1.603061362633550016e+05
-1.603055138381734141e+05
-1.603051741205007129e+05
-1.603042860726137878e+05
-1.603055818858185958e+05
-1.603046901501087123e+05
-1.603041964887903887e+05
-1.603053011437878013e+05
-1.603055887569652987e+05
-1.603043946566504019e+05
-1.603042585227196105e+05
-1.603054699181824108e+05
-1.603044366302110138e+05
-1.603063942491853086e+05
-1.603039429328374972e+05
-1.603034364293781982e+05
-1.603057957573686144e+05
-1.603037787498197868e+05
-1.603064242516414961e+05
-1.603062135513061949e+05
-1.603059869008818059e+05
-1.603037307607744879e+05
-1.603051792416833050e+05
-1.603037536783384858e+05
-1.603045357786999957e+05
-1.603051441908350098e+05
-1.603067381212199107e+05
-1.603046982147468079e+05
-1.603053367572315037e+05
-1.603045521025373891e+05
-1.603049736353192129e+05
-1.603046982551557012e+05
-1.603057521607849922e+05
-1.603044671389349969e+05
-1.603045162712665915e+05
-1.603027731358263118e+05
-1.603055980112850957e+05
-1.603037815776269126e+05
-1.603054814725444012e+05
-1.603054130997231114e+05
-1.603069129872911144e+05
-1.603027824655215954e+05
-1.603055444749268936e+05
-1.603043745836282906e+05
-1.603058538574842096e+05
-1.603040273343888111e+05
-1.603035945543253911e+05
-1.603054265245957067e+05
-1.603051686957752099e+05
-1.603047666519230115e+05
-1.603044685434506100e+05
-1.603060296622120077e+05
-1.603032612341853965e+05
-1.603044327109552105e+05
-1.603051432686412008e+05
-1.603056623817199143e+05
-1.603055966058170889e+05
-1.603036478453729069e+05
-1.603045886068817927e+05
-1.603046986661835981e+05
-1.603035554774166958e+05
-1.603024245846580889e+05
-1.603046624142247892e+05
-1.603062564363121055e+05
-1.603061064561404928e+05
-1.603057592965624062e+05
-1.603042148088548856e+05
-1.603050070968866057e+05
-1.603044602786728065e+05
-1.603039273662928026e+05
-1.603037388937129872e+05
-1.603044054519507918e+05
-1.603056476770958980e+05
-1.603032233628770045e+05
-1.603051424615514989e+05
-1.603026723243134911e+05
-1.603048145908993902e+05
-1.603062483896336053e+05
-1.603043166383457137e+05
-1.603042542784239922e+05
-1.603051400615074090e+05
-1.603047698544308951e+05
-1.603051835092447873e+05
-1.603044489471720008e+05
-1.603046040100220998e+05
-1.603041738232036878e+05
-1.603063348976181878e+05
-1.603052277809428051e+05
-1.603059507213053002e+05
-1.603054864911400946e+05
-1.603035234426782117e+05
-1.603046742231493117e+05
-1.603053779929553857e+05
-1.603052019225083059e+05
-1.603033051381215919e+05
-1.603053083549407893e+05
-1.603048394295872131e+05
-1.603061005284124985e+05
-1.603049346369153063e+05
-1.603044788825522119e+05
-1.603043093380753999e+05
-1.603051225550631934e+05
-1.603066407093614980e+05
-1.603039326027155912e+05
-1.603028676908976049e+05
-1.603049708407100115e+05
-1.603039826754727110e+05
-1.603043927941670991e+05
-1.603040874859704927e+05
-1.603044111217148893e+05
-1.603046903933784924e+05
-1.603047550640910049e+05
-1.603053287912347878e+05
-1.603042174601962033e+05
-1.603045948064516124e+05
-1.603040813457216136e+05
-1.603055445454044093e+05
-1.603043482805599051e+05
-1.603040449564814044e+05
-1.603044477060608042e+05
-1.603045677258177893e+05
-1.603044521709048131e+05
-1.603052105945044896e+05
-1.603056783273190958e+05
-1.603062680532603117e+05
-1.603040170102533884e+05
-1.603044369997415051e+05
-1.603048121681337943e+05
-1.603047106232740916e+05
-1.603040169782800076e+05
-1.603053174714348861e+05
-1.603048215066727134e+05
-1.603052148690047907e+05
-1.603026675129325886e+05
-1.603054158626311109e+05
-1.603056900868550001e+05
-1.603060575691194972e+05
-1.603051532527703093e+05
-1.603043490964932134e+05
-1.603053656479665951e+05
-1.603041885312290979e+05
-1.603030857339529030e+05
-1.603034535189440940e+05
-1.603031927726549038e+05
-1.603052094974775100e+05
-1.603043104591844021e+05
-1.603046148302209913e+05
-1.603037600229450036e+05
-1.603051247459877923e+05
-1.603054302283372963e+05
-1.603055945116289076e+05
-1.603041433733922895e+05
-1.603061807516556873e+05
-1.603057445118009055e+05
-1.603054723959150142e+05
-1.603034258578913868e+05
-1.603047447002269910e+05
-1.603036472069938027e+05
-1.603058469966776902e+05
-1.603038648414702038e+05
-1.603059891387461103e+05
-1.603052908543469966e+05
-1.603027612464922131e+05
-1.603061222903091111e+05
-1.603044046645894123e+05
-1.603047749942532100e+05
-1.603059515294833982e+05
-1.603047689688362880e+05
-1.603050165305293922e+05
-1.603059423396546918e+05
-1.603055290960047860e+05
-1.603050001854670991e+05
-1.603052442890013044e+05
-1.603044878455740982e+05
-1.603043922964709054e+05
-1.603039275069757132e+05
-1.603048525167664920e+05
-1.603065066410469881e+05
-1.603040218616350903e+05
-1.603062347078855091e+05
-1.603043269635693869e+05
-1.603062331485371978e+05
-1.603034539041212120e+05
-1.603054915879685141e+05
-1.603042651997130888e+05
-1.603043952672739106e+05
-1.603040972724088933e+05
-1.603038492184618954e+05
-1.603046617957100971e+05
-1.603057656423934095e+05
-1.603040008475074137e+05
-1.603045882008880144e+05
-1.603045919160582998e+05
-1.603046550939542067e+05
-1.603049492944637022e+05
-1.603037507397810987e+05
-1.603039923104796908e+05
-1.603059086757705954e+05
-1.603058815458841855e+05
-1.603047841771430976e+05
-1.603039595942320884e+05
-1.603051000064855034e+05
-1.603050630813169992e+05
-1.603050367439620895e+05
-1.603039441687784856e+05
-1.603039117445090960e+05
-1.603045506291770143e+05
-1.603042165931054042e+05
-1.603057870414261124e+05
-1.603036682801702991e+05
-1.603050726965956856e+05
-1.603044843340808875e+05
-1.603052032742337906e+05
-1.603047349299794005e+05
-1.603062589054731943e+05
-1.603039043572985101e+05
-1.603037536501747963e+05
-1.603061150146650907e+05
-1.603053202354313107e+05
-1.603060391550395871e+05
-1.603038791366989026e+05
-1.603060655107620987e+05
-1.603042098596483120e+05
-1.603033104450218088e+05
-1.603048014609981910e+05
-1.603048540531212930e+05
-1.603038919014233106e+05
-1.603036266403573100e+05
-1.603055721317617863e+05
-1.603051758595803112e+05
-1.603048186754643102e+05
-1.603037136493035068e+05
-1.603032570062165032e+05
-1.603063398231508909e+05
-1.603044711920706904e+05
-1.603040831167745928e+05
-1.603061280255164893e+05
-1.603057542933411896e+05
-1.603038095626310096e+05
-1.603033628804073960e+05
-1.603057235499189992e+05
-1.603025422223304922e+05
-1.603061038480653951e+05
-1.603055395802790881e+05
-1.603053654867390869e+05
-1.603057463013576053e+05
-1.603043672913855116e+05
-1.603045713721433131e+05
-1.603048628460720065e+05
-1.603063178366243083e+05
-1.603045885275606997e+05
-1.603052307141940109e+05
-1.603044819408397016e+05
-1.603037896583196125e+05
-1.603055508913713857e+05
-1.603054410528900044e+05
-1.603045537802552863e+05
-1.603063083795798011e+05
-1.603056335056789103e+05
-1.603054101305528893e+05
-1.603047600775164901e+05
-1.603054065913041995e+05
-1.603043128366431047e+05
-1.603038142544178991e+05
-1.603036829690116865e+05
-1.603059388742847950e+05
-1.603055925130888063e+05
-1.603041393320935895e+05
-1.603032669302083959e+05
-1.603044733344230044e+05
-1.603042473438747111e+05
-1.603033521961293882e+05
-1.603038153621933889e+05
-1.603065107941844908e+05
-1.603033551602654916e+05
-1.603046586435433128e+05
-1.603046027774823888e+05
-1.603050412945220014e+05
-1.603049782725473051e+05
