-1.156850 -0.909346 0.561887 0.080620 -0.419279 0.136017 -0.512717 0.395647 0.960500 -0.160529 0.616913 0.341104 0.540964 -1.143332 -0.144408 0.209901 0.139149 -0.155870 0.036179 1.333474 -0.099661 -0.262685 0.402471 0.113776 -0.061016 0.206837 -0.112524 -0.357115 0.754007 -0.916166 -0.320687 -0.033971 -1.143928 -0.580107 -0.445219 0.276842 0.398112 -0.453241 0.951076 0.880014 -0.915175 0.025521 0.692112 0.978379 0.211228 -0.718112 -0.417370 0.676740 -0.086580 -0.588078 0.567334 0.493207 0.852807 0.367052 0.162813 -0.711225 -0.971752 1.000355 0.520850 0.012744 -0.667965 0.589104 0.775343 -1.046564 0.576972 -0.437365 -0.201950 0.781091 -1.104737 -0.160934 -0.589262 0.287785 0.244154 0.701982 -0.115447 0.193836 -0.315890 -0.543493 -0.948412 -0.310305 -0.058328 0.563022 0.133416 -1.001215 -0.510768 -0.673369 -0.051364 1.768332 0.378817 0.113000 0.560636 -0.553506 1.216424 -0.071266 -0.883348 -0.738112 
0.791801 -1.064519 -0.145184 0.639136 -2.107814 0.345720 -0.509049 -0.084430 0.286995 0.184281 -0.354013 0.653674 -0.987892 -0.035298 -0.079966 0.491646 0.638362 -0.221600 -0.243607 0.031996 -0.515684 -0.414209 -0.572771 -0.438029 0.058213 -0.262654 0.465443 -0.438047 -0.809968 -0.454874 0.624767 -0.188944 -0.169463 -1.058349 1.079876 0.230423 1.263808 0.479416 -0.373554 0.372188 -0.244598 -1.812042 -0.451873 1.109664 -2.015554 -0.973219 -0.907288 0.100127 0.059768 0.857661 0.510795 -0.164372 1.582758 0.643935 0.940137 -0.397153 0.335857 0.033732 -0.709793 0.381512 -0.710556 -0.013119 0.381423 1.148851 -0.555667 0.014577 0.770128 -0.380404 -0.235975 -0.487830 0.001225 0.828018 0.423047 0.323176 0.415955 -0.465947 1.726235 -0.187016 0.260668 0.672622 0.469182 -0.796392 -0.538844 -0.126843 0.282913 -0.140012 0.081127 -0.753037 0.946818 0.581150 0.058748 0.447496 0.133619 0.050544 -0.530020 -0.083748 
0.299773 0.535717 0.171064 0.190006 -0.753124 -0.388222 0.306079 0.725802 -0.281958 -0.087883 -0.151643 -0.307579 -1.463649 0.002987 0.500326 0.447151 0.703949 0.465326 0.358854 -0.484907 -0.473123 0.363489 0.055823 -0.021911 -0.274271 -0.217529 0.835319 0.526358 0.444341 -0.582003 0.890931 0.654757 -0.967735 -1.528797 -0.376882 0.279272 1.174105 -0.711150 0.675941 0.039500 -0.512880 0.164110 0.052803 0.191366 0.242778 -0.461236 0.280981 1.131892 0.362888 1.057447 0.702237 1.050404 -0.351136 1.754767 -0.009525 0.089533 -0.423356 0.459596 -0.179851 0.687962 0.035783 0.574809 -0.489796 0.546759 -0.669090 -0.615517 -0.359575 0.457511 0.293384 -0.960121 -0.395634 0.307553 -0.286596 0.722282 0.519520 -0.106583 -0.810619 0.376268 0.142473 -0.333621 -0.477831 0.107511 -0.011308 0.231811 -0.526821 -0.199879 0.706493 -1.574361 -0.114844 -1.263665 0.159175 0.007942 -1.686570 0.125780 -0.231151 -2.066755 
-0.680576 -0.922510 -0.111784 0.990846 0.907601 -0.698015 0.009820 0.150095 -0.550897 -0.026092 0.092677 -0.429654 0.016423 -2.155606 -1.909690 -0.570712 -0.649092 -0.044506 0.560226 0.711254 0.097829 0.212293 0.277300 0.307927 1.082061 0.047307 -0.038387 0.083177 -0.480193 0.105915 -1.185066 0.525965 0.725714 0.288370 0.308069 -0.302349 0.617189 0.577061 -0.359495 0.026298 0.885662 1.163164 -0.198230 -0.231866 -0.008304 -0.170826 -0.894837 -0.169278 -2.000516 0.430195 -0.515445 0.404977 -0.265103 -1.490804 -0.256020 -0.440807 1.122313 -0.371110 -0.277710 -0.148355 1.697433 0.486578 2.915388 -1.095881 0.178607 -0.198277 0.467284 -0.146586 0.239820 0.190764 0.592094 -1.173251 0.251233 -0.304065 0.438403 0.511174 -0.374274 0.167272 -0.250550 -0.183326 0.739399 -0.481637 0.935240 0.658932 -0.096653 0.113158 -0.764573 0.510981 -1.197669 0.279473 -0.405653 0.090249 -0.188191 -0.131029 1.214531 0.139709 
-0.459169 0.382435 -0.822829 -0.406275 0.239293 -0.214743 0.641403 -0.592518 -0.164378 0.255964 -0.005849 0.368567 -0.680646 -0.122495 0.365350 0.901433 -0.689953 -0.402336 -0.038689 -0.347754 -0.614160 -0.421662 0.240680 0.767323 -0.084299 0.161822 0.235393 0.483240 -0.238370 0.256501 0.798035 0.345034 0.558840 -0.545677 0.143354 0.604146 1.864286 0.185407 -1.495493 -0.466087 -0.579371 0.526483 -0.085916 0.165164 -1.290838 -0.229571 -1.198993 -1.160649 0.277179 -0.367048 -0.133146 -0.090157 -0.505689 0.317734 0.483950 0.563434 -0.415223 -0.591609 -0.231330 -0.133157 -0.458244 0.495036 -0.180154 -0.179708 -0.410666 1.470658 -0.064485 0.910190 -0.096104 0.400958 1.066875 -0.114018 0.822512 0.640679 -0.102063 -0.166740 -0.421861 0.493703 -0.420250 -0.148324 0.246091 -0.828531 0.650345 -0.173955 0.897924 0.220242 0.083115 -0.980248 -1.165979 0.146105 -0.555445 0.479291 -0.269339 -0.073476 0.136918 1.342577 
0.023104 -0.261313 -0.369637 0.027854 0.258264 0.703290 -0.377166 -0.138039 0.847878 -0.335999 0.037207 -0.510409 -0.464201 -0.170899 -0.325547 -0.127108 -0.718813 -0.367769 0.338729 1.110248 0.372209 0.336812 0.202967 0.736446 -1.149307 0.476260 -0.146348 -0.038627 -0.481060 0.139938 -0.495640 0.088372 -0.586713 1.341902 -0.976263 0.231874 0.434834 0.781333 -0.209416 0.056779 -0.439055 -1.014648 0.298815 0.376215 -0.626058 0.359033 0.027307 0.285048 0.475862 0.052463 -0.006189 -0.129147 -0.343102 0.363217 0.143719 0.123297 1.163788 0.090517 0.146257 -0.512914 -0.733203 -0.546344 0.101636 0.125173 0.127461 -0.924560 0.369893 -0.300472 0.056422 -0.942157 0.708137 0.209569 1.247378 -0.439039 0.253416 -1.457662 0.068735 -1.043955 0.335831 0.235640 -0.546454 -0.532781 0.323844 -0.728977 0.337504 -0.112645 0.341892 1.009594 -0.647671 2.110946 -0.233809 0.722491 0.084024 -0.336526 -0.291779 -0.081997 
-0.230735 -0.164904 0.948862 0.009099 -0.841707 0.337964 0.955138 -0.910186 -0.318170 0.060067 -0.337054 -0.144505 -0.866931 -0.240648 0.068049 0.188962 2.215707 -1.518614 -0.702043 -1.076910 -1.710411 0.390494 0.435833 -1.758315 -0.040212 -1.910473 1.333896 -0.527794 -0.476488 0.011421 -0.464332 0.404804 1.349022 0.888341 -0.226555 0.465947 -0.101078 0.869242 0.824760 0.749381 -0.037637 0.422466 -0.641121 1.672421 0.332092 0.394051 -1.481528 0.309865 0.142374 -0.690065 -0.963625 0.713282 0.205078 -0.359613 0.455654 2.025028 -0.425379 0.127073 0.513933 0.728740 -0.504579 -0.432866 -0.765856 0.819662 -0.847383 0.933317 -0.297939 1.249752 -0.730162 -1.145629 0.256109 0.126166 1.195016 -0.840359 0.003531 -0.033139 -0.362796 1.163138 0.543158 -0.874379 -0.147006 -0.472295 0.786767 0.726704 0.288921 -0.528315 0.672765 -0.635483 -0.373440 0.011930 -0.993213 1.778553 -0.964577 -0.264153 0.240466 -0.964402 
0.572794 -0.170477 -0.800901 1.534156 0.110442 0.436890 -0.063252 -0.233804 -0.066902 0.134839 0.308698 0.565064 0.139062 -0.054659 -0.942454 0.186020 -0.412721 -0.719772 -0.499131 0.375041 -0.280324 0.505159 -0.050020 -0.220116 0.626298 0.587248 -0.283925 -0.189038 -0.306493 0.145687 -0.578804 0.648556 0.206444 0.184367 -0.499576 0.209901 -0.297393 0.030555 -0.303676 0.541722 -0.917261 -0.219220 0.504460 0.147187 0.034685 -0.256879 -0.635190 -0.033947 -0.606897 -0.090416 0.129456 0.382557 0.215954 0.051774 0.777940 -0.181437 -0.633805 -1.168093 -0.413818 1.257503 0.238718 -0.148451 0.057325 0.425930 0.826054 0.052895 -1.277199 0.156981 -0.349346 0.016635 -0.020083 0.251551 0.092604 0.337286 -0.034588 -0.939079 0.364933 -0.020905 -0.449593 -0.145524 1.393445 -0.075268 -1.526728 0.030996 0.334088 0.657077 0.358110 -0.705400 0.619148 -0.842503 0.444903 0.193862 0.157347 -0.536228 0.227636 0.413310 
0.155930 0.561150 0.229263 -0.876780 0.439755 0.666824 0.689895 0.797296 0.254391 -0.177376 -0.600581 -0.420420 0.548290 -0.459201 -0.510681 -1.048263 -0.065109 -0.827170 0.370866 1.054281 -1.052825 0.185429 -0.163706 0.267521 0.181425 -0.516715 -0.250046 0.678371 -1.515392 1.011986 0.321723 0.253930 0.718203 -0.172307 0.634434 0.443207 0.395315 0.137156 -0.170783 -1.227333 0.027562 -1.031347 -0.159086 0.168836 -0.437178 -0.060006 -0.253169 0.860936 -0.127819 -0.437474 -0.656141 0.215439 -0.332149 -0.458261 -0.098231 1.380615 -0.149127 0.879902 -1.171545 0.050126 -0.212705 -0.319490 1.471111 -0.837419 1.047264 0.468188 -0.263177 -0.074047 -0.012710 0.267119 0.089103 0.830908 -0.102595 0.015786 -0.013902 0.228957 0.493023 -0.188396 -0.164393 -0.652208 -0.849604 0.341561 0.400771 -1.202353 0.590960 -0.204536 -0.063451 -0.130316 0.355292 0.268950 -0.516369 -0.582319 0.431831 0.122992 -0.508609 0.320949 
0.300873 -0.457677 -0.510638 0.760511 -0.263651 -0.005021 -0.982987 -0.094463 0.042651 0.194472 0.556997 -1.284289 -0.014004 0.658721 -0.018571 0.897724 -0.068744 -0.909448 -0.329725 -0.139876 -0.406780 1.068876 0.917513 -0.524879 -0.556620 -0.068720 0.004547 -0.198223 -0.026301 -0.404408 0.119844 0.645836 0.398492 0.841585 -0.066905 -0.250874 -0.135627 0.566427 0.771083 0.457570 -0.415775 -0.464266 -0.399966 -0.142303 2.077254 -0.324359 -0.039669 0.678052 -0.139169 0.014983 -0.193631 0.025087 0.469312 -0.312029 -1.489222 -0.810785 0.628898 0.028926 0.129886 -0.202733 0.243489 -1.053179 1.389652 0.724278 0.176708 -0.495260 -0.100528 -0.481022 -0.258569 -0.822356 0.806643 0.208615 -0.059925 -0.008791 -0.271151 -0.019664 -0.678718 0.743465 0.135902 -0.190655 0.058042 0.288015 -0.252184 0.389331 -0.439002 -0.036512 0.546299 -0.061788 0.164681 -0.219711 0.163473 -0.226645 -0.456029 -0.177461 0.414868 -0.748092 
-1.121441 0.006418 0.111096 -2.051111 1.250153 0.480606 0.719797 1.194527 0.491103 0.141249 -0.370932 0.024508 -0.700935 0.130765 -0.351160 -0.828419 -0.434196 -0.472891 0.143067 -0.144451 -0.606820 0.350503 0.693843 0.341844 -0.529919 0.423913 0.755791 0.473749 0.642796 0.919375 -0.199125 -0.369005 -0.130778 0.000051 0.018920 -0.163121 -0.252788 -0.464584 -0.637023 -0.006841 0.793485 -0.364343 -0.776064 0.604152 0.198183 -0.386937 0.219569 0.385108 0.426167 -0.185534 0.402056 0.245107 0.115743 -0.127387 0.514579 0.251059 -0.788368 0.098356 -1.294114 -0.763703 0.130047 -0.191787 0.358135 0.150701 -0.574188 -0.433539 0.843136 0.188225 1.107249 -0.372671 0.011100 -0.046895 -0.216587 -0.611798 -1.129218 0.621534 0.434826 0.269042 -0.868886 0.290660 0.573435 0.385462 -0.474744 -0.648074 0.520006 0.878794 0.848595 -0.289319 -0.340262 -0.705559 1.105146 -0.734068 -0.372901 1.732387 -1.959286 0.475655 
-0.498470 0.397769 0.064554 -0.866551 0.417827 -0.018521 -0.266965 -0.079059 0.835137 -0.523455 -0.852419 -0.159458 -0.007879 -0.124583 0.450565 0.661853 0.604024 0.372763 0.256681 -0.458451 0.787379 -0.865081 0.752838 -0.482083 0.021345 -0.131695 -0.101657 0.642525 -0.539392 0.299220 -0.311038 -0.743809 -0.284132 0.081954 1.377717 -0.221217 -0.733295 -0.238896 -0.321011 0.309698 -0.045824 -0.323335 0.358023 -0.151954 0.664796 1.292878 0.039877 0.175048 -0.460839 -0.284599 0.512159 0.547246 -0.264141 -0.129024 -0.038263 0.062918 -0.271144 0.761346 1.205709 0.790915 -0.517059 -0.243564 -0.523879 0.966216 -0.690121 -0.808293 -0.232275 -0.148078 0.226834 0.555952 0.078001 -1.012926 0.916177 -0.793987 -0.740456 0.176352 0.890363 -0.889221 -0.852025 1.522494 -0.494196 -0.386215 0.976783 -1.137023 -0.222081 -0.379040 1.821740 -0.624014 -0.791412 0.169446 0.164321 -0.622305 1.518990 -0.307059 -0.742992 -0.771970 
0.355827 0.295869 -1.107218 0.091339 -0.754581 -0.274848 1.774661 0.458131 0.769093 0.995799 -1.170668 0.677349 0.076186 0.246535 -0.199739 -0.122934 1.033735 0.285921 -0.031978 -0.354809 0.280869 -0.650953 -1.277970 1.337359 -0.135330 0.760881 0.362193 -0.694825 -0.461980 -0.017273 -0.162320 -0.519083 -0.834853 -0.608407 -0.321048 0.317743 0.034369 0.315795 -0.393621 1.124558 1.023872 -0.859210 -0.495218 -0.536236 -1.086728 -1.130246 0.041189 -0.114182 0.908556 0.576791 0.258232 -0.036934 0.274968 0.679037 0.429642 0.147916 0.007461 -0.960687 -0.518089 1.660783 0.018406 -0.238081 -0.616715 0.047715 -0.618414 -1.109299 1.086160 -1.149238 0.191797 -0.455993 -0.213905 -0.649509 0.012880 0.137895 -0.776278 -0.549341 0.360285 0.146651 -0.520508 0.625257 0.607141 1.442348 0.786411 -1.052595 -1.219477 0.679018 0.521726 -0.011278 0.338790 0.377984 0.062766 0.036680 0.379027 -0.674784 -0.005917 0.231700 
0.253127 -0.369751 -0.207797 0.153077 0.025164 -1.498888 -0.261268 -0.328813 -0.866289 0.284602 0.675654 0.793548 -0.313354 0.860720 -0.197261 -0.242715 -0.397860 -0.100104 -0.347007 -0.381242 -0.602842 1.064469 0.716632 -0.857159 1.120404 0.451801 -0.122064 0.441938 0.786773 -0.397163 0.686869 -0.206606 -0.344886 -0.903829 -0.964638 0.673953 0.323881 -2.002124 0.484135 1.467530 0.636344 0.837694 -0.437022 0.322226 0.815599 -0.201594 0.258931 -0.311411 -0.241678 -0.662417 0.707254 -0.707120 0.759328 0.059781 1.149976 -0.179313 0.111045 0.632232 -1.308165 -0.338266 -1.237461 -0.401932 -0.350696 -0.366142 0.393633 0.463738 -0.896318 0.570725 0.817770 0.068112 -0.320576 -0.003032 0.053887 1.191735 0.653297 0.085424 0.379801 0.183794 -0.025165 -0.199684 -0.027922 -0.979035 -0.826746 0.003509 -1.089337 0.110985 0.171385 0.176506 -0.500722 -0.127341 -0.219085 0.536521 -0.359966 0.506099 0.373618 -0.063413 
0.479640 -0.264304 0.390709 -0.558931 1.683660 1.676317 -0.940485 0.020488 -0.140418 -1.124808 -0.251618 0.089254 -0.011684 0.168930 0.656146 -0.214092 0.978016 -0.176606 -0.766848 0.142093 0.788656 0.894684 0.810239 -0.115787 -0.266098 -0.816911 0.445734 0.566923 -0.844032 0.198373 0.121829 -0.535541 0.876340 0.342363 0.567935 0.332041 -1.585459 -0.285623 -1.145071 -0.031207 1.371292 -0.832214 0.002933 0.549382 0.371167 -0.008419 -0.027540 -0.425980 -0.035584 -1.074040 0.411060 0.519960 0.371769 -0.438486 -0.068334 0.220844 0.827668 0.121287 0.016342 0.028287 0.114313 -0.314708 -0.813881 -1.370388 0.348143 -0.114305 0.002273 0.203045 -0.143690 0.526544 -0.220235 0.643240 1.291781 0.681556 -0.851784 -0.277864 -0.441915 -1.111326 1.164082 -0.712665 -0.888079 0.497575 -2.184647 -1.453269 -1.251929 0.970475 0.647797 1.251870 -0.074674 -0.167209 0.217410 -0.533080 0.831201 0.396664 -0.522675 -0.395884 
0.189679 -0.136498 -0.344869 0.459696 0.571264 -1.291122 0.400744 -1.204660 -0.288450 -0.052745 -0.505980 -0.099788 0.011213 0.081665 0.690154 -0.076559 1.791483 0.353960 -0.715050 0.335077 -0.338462 0.276495 0.579608 1.102500 -0.821971 0.374167 -0.109434 -0.702526 -0.118070 0.083045 0.306022 0.342818 0.668592 -0.288861 -0.066066 -0.224142 0.050128 0.827805 0.884069 0.952492 0.379934 0.405317 0.364743 -0.630053 -0.423661 0.102295 -0.437310 -0.874478 0.179366 0.045628 1.430486 -0.357723 0.340222 0.675888 0.191148 -0.408035 -0.521762 0.173018 -0.211720 0.317306 -0.233868 -0.240824 -0.035153 -0.443287 -0.685821 -0.033947 -0.190431 -0.916374 -0.701443 0.569191 -0.562969 -0.701533 -0.179255 0.542071 0.138730 -0.304267 0.497893 0.236069 0.647874 -0.280012 -0.291230 0.066465 -0.092623 -0.080639 -0.401368 1.113041 0.225795 -0.374484 -0.510386 -0.478608 0.278891 0.190364 -0.430920 -0.077066 -1.005638 0.057730 
0.514100 -0.799683 0.709567 -0.791216 0.212749 -0.192064 0.576311 -0.668445 0.272463 0.425008 0.148021 -0.038522 0.318182 0.977360 0.461037 1.256249 -0.165126 -0.557986 -0.117898 -1.328711 -0.692322 0.186335 0.528722 -0.689475 1.679157 0.587432 -1.749160 -0.889441 0.848550 0.478694 0.169837 -0.651685 -1.098691 -0.292307 0.815897 -0.732116 -1.074137 0.796349 0.176891 0.510193 0.288699 0.432025 0.435427 -1.162210 0.067959 -0.111890 -0.810434 -0.179592 -0.105827 0.115494 -0.371492 -0.277202 -0.698171 -0.212852 -0.580299 1.048417 -0.125919 -0.149802 -0.687257 -1.207551 -0.467897 -0.219291 0.965535 -0.611505 -1.266832 0.730987 0.569732 0.310649 0.702934 0.349163 0.162165 0.257049 0.145736 0.082318 0.230151 0.777039 0.076200 0.594235 -0.427013 0.502246 0.813253 -0.898463 0.213898 1.595692 -0.975932 0.232019 -0.082110 -1.126524 -1.322301 -0.520599 0.513487 1.085285 -0.269811 0.471396 0.747676 0.231791 
-0.885614 -0.062133 0.962255 0.824764 0.561536 0.010390 -0.242669 0.907801 -1.264208 0.169985 2.096996 0.306056 -0.258571 -0.250542 0.726642 -0.431155 -0.008876 1.081353 0.735358 0.252519 0.240865 -0.703691 -0.128483 -0.341634 0.349382 0.672470 0.680059 1.689185 -0.608282 0.824972 -1.502434 1.552845 -0.535001 -0.734041 0.478288 -0.501806 -0.208768 0.250155 -0.438804 -0.153710 -0.868521 0.166392 0.451810 0.241548 0.545977 0.514480 -0.428828 0.296061 -0.277489 0.528955 -0.245520 -0.202586 -0.599715 -0.417203 -0.628952 -0.610623 -0.488841 1.202575 -0.271998 0.033016 -0.016845 -1.273166 -1.692110 -0.120491 -0.321604 -1.211037 0.323736 -0.261243 0.361893 0.042498 -0.225789 0.578607 0.866030 -0.814450 2.386947 -0.136280 -0.327048 -1.348531 0.043149 -1.025436 0.010764 -0.395650 1.174594 0.239976 0.577422 0.872564 -0.122332 0.241929 -0.243972 0.361268 -0.479911 -0.524185 -0.565439 -0.653447 -0.735375 -0.641025 
0.448888 -1.414358 -0.392667 1.369203 0.226707 -0.328495 -0.500569 -0.237381 0.313150 0.710561 0.431580 -0.954775 -0.171922 0.105402 -0.333410 -1.657729 -0.447839 -0.835443 0.501977 -0.580357 -0.065292 1.005469 0.279963 -0.663072 0.149306 1.211009 0.483952 0.529388 -0.580223 0.970623 1.045647 -0.615078 -0.528552 -1.457644 -0.964904 -1.471296 -1.356428 0.208666 1.743558 0.708590 1.243057 -1.048615 -0.386377 -1.011990 0.909250 1.364536 -0.138409 0.374751 0.484027 1.184389 0.556914 0.104272 0.337580 0.054383 -0.777659 -0.486246 0.225185 -0.270326 -1.063632 0.530170 -0.175077 0.327199 0.323470 -0.714828 1.007191 -0.482654 -0.443152 -1.610055 -0.974126 0.633657 0.047533 -0.744683 -0.283490 0.323983 0.626430 0.276356 -0.166147 0.500119 0.074972 0.467566 0.550524 -0.542472 0.773825 1.056052 0.138735 0.588187 -0.438723 -0.090948 0.524747 -0.037193 -0.320658 -0.253105 0.457656 -0.396307 0.281138 -0.377192 
0.123866 0.019400 -0.040028 -0.519285 -0.383754 -0.605571 0.095424 0.819988 1.350870 -0.588879 0.147727 0.008937 -0.306483 -0.307275 -0.034210 0.138558 -0.286910 0.853130 -0.434852 0.583867 0.128205 1.822498 0.586922 -0.659594 0.267749 0.379578 -0.592972 -1.382959 -0.719587 -0.518629 0.393904 -0.104756 0.403908 1.531363 0.101958 -0.804374 -0.645473 0.002231 0.875646 0.701274 -0.778934 1.424101 -0.385973 0.638927 0.126576 -0.843951 -0.745913 -0.230592 0.255731 -0.102469 0.494042 1.354803 0.374979 -0.038042 -0.074735 0.292391 -0.185450 -0.916136 -0.479527 -0.512304 0.445332 -0.402687 -0.068375 -0.767998 -0.042087 0.028908 -0.681730 0.159649 1.000582 0.961066 0.512580 -1.444687 -0.216203 -2.076792 -1.243315 -0.124063 1.522954 0.151483 0.077961 -0.156510 1.141232 -0.117363 0.202796 -0.275036 -0.453842 -0.818023 -0.837598 0.050949 0.727285 -0.602723 -0.459359 0.274993 0.014805 0.698805 0.057000 0.691075 
1.008728 -1.214328 1.767486 -0.836983 -0.263464 -0.592601 0.012785 0.964394 -0.273822 0.697743 -0.053527 0.223792 -0.503874 0.567095 -0.419900 0.283018 -0.020118 0.018284 0.493566 0.299373 0.078651 -0.556848 -0.367096 0.037170 0.522871 0.186202 0.706794 0.233257 0.713172 -0.018873 0.454339 -0.388208 -0.870558 0.025430 0.294287 -0.757185 -0.678957 -0.838804 -0.834176 0.979881 1.437910 -0.614616 -0.650078 0.270832 0.374869 -0.302569 -1.107630 0.120911 -0.163679 -0.120991 0.343893 0.448634 0.317633 0.095553 0.123791 -1.127440 1.134642 -0.126876 -0.519135 0.363089 -0.484082 0.115990 0.215750 -0.227789 0.142509 -0.611277 -0.609952 -0.449911 -0.215702 0.549197 0.706134 -0.010551 1.089479 -1.584577 0.070577 -0.471381 -0.653471 0.121037 -0.842006 1.751051 -0.568432 0.110426 0.149785 0.134703 -0.305455 0.998561 0.456939 -0.445333 -0.242884 0.401434 0.191386 -0.635510 -0.600843 -0.018670 0.672168 -0.277040 
-0.263521 -1.123204 -0.098838 0.283006 1.211554 -0.281177 -0.430766 -0.590687 -0.034155 -0.296843 0.439753 0.698571 -0.013523 -0.901459 0.619638 -0.991316 0.228484 -0.037399 0.890336 -0.221510 0.139653 0.477341 0.095958 -0.216601 0.467017 -0.852941 0.059576 -1.127303 0.669164 1.809714 0.922980 0.572081 -0.712140 1.275962 0.262627 0.042231 0.396904 0.749900 -1.186556 -0.044522 -0.963718 -0.359381 0.027577 0.238592 -0.208445 -0.821956 0.579705 -0.449133 1.177313 -0.482134 -0.102544 -0.026204 -0.594974 0.124526 -0.922928 1.302277 -0.111666 0.247077 -0.970554 -0.158183 -0.483666 0.302074 -0.078670 -1.266885 -0.784201 0.068112 0.766444 1.446130 0.076771 0.424007 -0.789866 0.533786 0.069048 -0.186084 -0.262794 -0.310204 0.004248 0.018068 0.095236 0.224067 0.589238 0.025446 -0.567450 -0.778541 -1.274268 -1.084794 -0.665925 1.765453 1.491015 0.284332 -0.541220 0.579072 0.324677 -0.496024 -0.283125 0.353256 
-0.873089 -0.882178 0.254692 0.541293 1.587446 0.249382 -0.561590 0.969920 -0.111188 -0.684221 1.262768 -0.022126 -0.014528 -1.679254 0.678411 1.043471 -0.329356 0.234424 -0.455500 0.136182 0.339434 -1.205291 -0.679861 -0.662627 0.234139 1.336462 -0.762209 -1.010371 0.300767 0.426175 0.336593 0.734879 -0.369965 -0.436005 -0.383543 0.979022 0.193588 -0.220103 -0.448634 -0.837587 0.051967 -0.656189 1.031532 0.442623 0.077100 -0.119775 -0.870670 1.044462 -0.956494 -0.547400 -0.132290 0.434863 0.674369 0.489872 0.816839 0.828696 -0.515176 -0.188182 -0.299312 -0.532242 0.905765 1.030490 0.460846 0.849894 -0.381630 0.927456 0.172739 -0.672690 -0.410126 -1.000862 -0.397663 0.167606 -0.517798 -0.125995 -0.729438 -0.154747 -0.314871 -1.048986 0.569957 0.542201 -0.702657 0.616507 -1.533447 0.062528 0.285199 -0.007886 1.107704 0.385564 -0.268913 0.211959 0.249811 -0.175452 -0.341918 0.348287 -0.128544 -0.265302 
-1.008387 0.219722 0.822118 -0.253382 -0.389382 -0.128700 -0.279659 -0.362879 -0.107231 -0.430041 0.640211 -0.053015 0.389458 -0.419051 -0.096132 0.774553 -0.437780 0.280591 -1.118249 -1.140683 -0.404787 -0.192560 0.658495 -0.363019 0.203642 -0.543414 0.202803 -0.434512 -0.123461 -0.694622 0.804919 -0.107790 0.626892 2.024828 -0.178525 0.220644 0.152842 0.191978 0.089244 0.634503 -0.115979 0.143284 0.016605 0.193475 0.562895 -0.779338 0.055476 -0.216885 -0.044151 0.445959 -0.187411 -0.163613 0.276631 -0.181139 0.502961 0.213303 0.302676 0.249459 -0.041218 0.490802 -0.228468 0.380539 0.443231 -0.970461 0.475082 -0.322170 -0.150958 0.781638 0.169239 -0.412098 0.557417 -0.310454 0.759066 0.375416 -0.394395 -0.082829 0.219461 -0.333784 -1.136467 -0.808242 0.094764 0.234357 -0.059300 -0.809533 0.303416 0.016710 0.347146 0.771386 -0.565299 0.064512 0.455268 -0.303441 -0.074810 -0.592092 -0.105067 -0.182753 
-1.102284 -0.185784 -0.295910 -0.744218 0.340332 0.047678 0.775053 0.169402 0.176830 0.432660 -0.023855 0.508556 -0.842653 -0.000470 -0.212629 0.233686 -0.103216 -0.681487 -0.129032 0.624467 -0.176779 -0.990329 0.178039 -0.134832 0.696325 0.474976 1.230507 -0.619266 0.010190 -0.105791 0.294567 0.288420 0.570323 -0.411190 0.201599 -0.833336 1.138697 -0.046455 -0.719629 0.176175 0.224820 0.267329 -1.238697 1.008074 0.627419 0.002607 -0.263653 -0.360736 -0.381182 -0.283536 0.286675 0.018830 -0.379971 0.621666 0.175531 -1.466262 0.071209 0.495943 -0.908624 -0.167916 -0.650334 -1.191137 -0.353016 0.966635 1.382360 0.870854 0.259985 0.328635 -1.177396 -0.161868 -0.401697 -0.915405 -0.188809 0.529665 -0.947903 -0.037390 -0.282505 0.754623 -0.002660 -0.766237 0.136003 1.081135 0.445313 0.348802 -0.142881 -0.087783 0.179041 0.520373 0.545423 0.051422 -0.046066 -0.044793 -0.457386 0.420656 -0.315737 0.791213 
0.477944 -0.174832 -1.059255 -0.335201 -0.391996 0.537074 -0.463354 -0.151259 -0.205327 0.818996 0.102512 -0.392318 -0.547361 -0.272452 -0.094447 -0.132005 0.151383 0.480822 0.495204 -1.351382 -1.285253 0.157092 0.582317 0.453073 0.035305 0.436259 0.365383 0.941759 -0.831059 -0.412035 0.107228 -0.354028 0.839285 -0.719271 0.444352 0.369642 0.063797 0.035047 -0.439223 -0.502065 -0.247785 -0.520401 -0.328231 0.094268 -0.487429 0.644353 0.723808 0.228559 0.423148 1.460194 0.571452 1.005342 -1.948072 -0.039487 -0.712912 0.490054 0.307383 -0.843656 0.125638 0.222963 -0.190978 -0.307438 -1.093487 -1.787882 0.568447 1.139789 -0.151614 0.857133 0.601454 0.189927 0.039758 0.855854 -0.399120 -0.425643 0.297540 0.498296 0.155055 0.338619 0.280952 0.082340 -0.553243 0.455171 -0.148820 -0.970331 0.168770 -0.272891 -0.456599 0.336535 -0.169964 0.661311 0.477714 0.787893 -0.242196 -0.463880 -0.088837 -0.019172 
0.871673 0.377102 0.960165 -0.072750 -0.690142 -0.698902 -0.412270 -0.018922 -0.212911 0.038531 -0.700928 -0.384894 0.396502 0.104340 -0.679527 -0.062883 0.521149 0.663062 0.893886 0.493596 -0.186769 0.884835 0.783254 0.972556 -0.823498 0.295920 1.411046 -0.604287 -0.727172 0.738874 1.288869 0.859017 0.537561 0.125364 0.188796 -0.520333 0.048745 0.478906 -1.399016 -0.228218 0.352701 0.244447 -1.191873 -1.119406 0.775796 0.743995 -0.382591 -0.705034 -0.606133 -0.133692 -1.171342 -0.701642 -0.499182 -0.056145 0.034679 -0.257891 0.368097 1.116744 1.245667 -0.212721 0.644479 0.330293 1.404207 0.289296 -0.259136 -0.757411 0.386620 -0.166290 0.168951 -1.030183 -0.413880 0.770253 0.286203 -0.230761 -0.364127 -0.343767 -0.714462 0.266249 0.036876 0.488393 0.185172 -0.435103 0.571888 -0.505255 0.165013 0.049459 -0.486626 -0.496244 -0.480372 -0.927525 -0.822544 -0.408568 -0.449285 -0.420915 0.062914 0.251385 
-0.547048 0.147196 -0.232613 0.242336 0.538907 -0.110519 -0.213985 -0.112312 0.361689 -0.522139 0.067842 0.328084 1.135282 -0.534229 0.734011 -0.313234 0.541727 -0.358780 -0.182503 -0.794277 0.006119 -0.610021 0.045723 -1.185383 0.614384 -0.194327 0.382912 -0.796073 -0.294865 -0.385685 0.160989 -0.374901 0.724334 -0.267988 0.447633 -0.290906 -1.398913 -0.052556 0.605436 -0.523003 0.945609 0.108988 0.341767 -0.104589 -0.046143 -0.030675 0.643931 -0.225198 -0.162047 0.870254 -0.112388 0.361023 0.012039 -0.454329 0.347216 0.266102 0.038261 0.334390 -0.274171 0.412865 0.609223 0.143478 0.272287 1.004793 -0.458199 0.192155 -0.293909 0.136115 -0.289100 -0.175842 0.517023 0.052358 -0.253680 0.290493 -0.010794 0.299091 -0.392654 -0.427000 -0.438715 -0.598489 0.257590 0.679007 -0.485605 -0.318161 -0.343684 -0.906623 -0.088521 -0.450491 -0.537297 -0.458976 1.224118 0.602998 0.105835 0.170329 -0.101975 0.411573 
-0.497069 -0.560403 0.138868 0.653890 0.506724 0.354978 0.363630 0.297734 -0.306986 -0.505015 0.345719 -0.070914 1.047617 0.683304 0.470868 -0.408990 0.542796 0.490696 -0.231812 -0.118918 0.635228 -0.460151 -0.364869 0.387231 -0.173157 0.559954 -0.786292 -0.115803 -0.174324 -1.004368 0.090189 0.576731 0.102664 -0.740666 0.640803 -1.177008 -0.212981 -0.755941 0.277017 -0.478843 0.981993 -0.020334 0.259218 -0.019646 0.114439 1.015069 -1.113709 1.365314 -0.071879 0.331126 -0.354265 0.061011 0.258909 0.906779 -0.183284 -0.176539 -0.196730 -0.521955 -0.817242 0.439798 0.148053 1.073954 -0.589374 -0.415921 -0.346182 -0.083343 0.448554 0.325462 0.461744 -0.107546 -0.276035 -0.217340 -0.275453 0.435496 -0.204411 0.293102 -0.429564 0.291414 -0.073579 -0.529870 -0.574077 0.184655 -0.668176 -0.147177 0.138120 0.865165 0.402043 0.047291 -0.777940 -0.757533 1.015712 -0.779359 0.021833 -0.292006 -0.517151 -0.370762 
-0.781354 0.116953 -0.265690 -0.181830 0.081335 0.288909 0.101684 0.369156 -0.685823 0.648012 -1.139851 0.318246 -0.247734 -0.465287 -0.233976 0.456890 -0.965993 0.639832 0.433743 0.158061 -0.335156 1.492263 0.495663 0.120128 -0.294068 -1.364707 1.029488 0.948705 0.238773 0.740645 -0.956130 0.065596 0.788311 -0.468876 0.323710 0.109878 -0.363963 0.400792 -1.400813 1.706589 -1.003517 -1.754832 -0.393863 -0.783730 -0.086576 -0.540163 1.083719 0.021006 0.314207 0.151697 0.169835 -1.071947 0.197884 -0.542853 0.386303 0.297707 -0.162447 -0.544895 0.550092 0.020942 -0.804570 0.444141 0.398691 0.614055 0.334876 0.751305 -0.072474 0.246298 -0.463338 -0.309411 -0.366165 0.612403 0.175982 0.107952 -0.216406 -0.700083 0.395573 -0.701904 0.711113 0.692151 -0.175874 0.110353 -0.002258 -0.153773 -0.784695 -0.005871 0.974148 0.156239 0.068792 0.292534 0.165838 -1.559887 0.065954 0.094082 0.836348 -0.162793 
0.924355 0.060764 0.950649 0.611949 0.771296 -0.407405 -0.694212 -1.329876 -0.451834 -0.119103 0.199708 -0.129471 0.293602 -0.692894 0.229169 -0.283690 0.033120 0.191108 -0.205676 -1.334363 -0.266194 0.841237 -0.671253 0.001936 0.238899 -0.208761 -0.274481 -1.229886 0.502203 0.267832 0.314729 -0.692487 0.399234 0.793467 -0.930688 -0.128492 -0.523534 -0.105876 -1.387144 0.027712 0.041844 -0.244185 0.261686 -0.455056 -0.220286 -0.297379 -0.122018 -0.749983 0.688249 0.682618 -1.072006 0.236843 -0.258237 0.089923 -0.720343 0.722255 0.546899 -0.882496 1.189839 0.116309 -0.556927 1.250639 0.552297 -0.486561 -0.367388 0.874641 -0.784702 0.586366 0.029423 0.664381 -0.050754 0.187218 -0.260776 0.253679 -0.132413 -0.550940 0.058038 0.628844 0.410016 -0.204288 -0.603755 0.055690 0.335917 0.385464 0.128590 0.570757 0.672170 0.429422 -0.204987 -0.449991 0.453772 0.463087 0.230925 0.221630 -0.093208 0.163600 
-0.083360 0.714760 -0.526704 0.262814 -1.211087 0.436438 0.334099 -0.192462 -0.367213 -0.332007 0.071098 0.176303 -0.243786 0.125353 -0.270802 0.949017 -0.614918 0.578099 0.281898 -0.174055 0.085142 -0.618159 -0.203069 -0.653749 1.181369 1.379811 0.340772 0.410724 0.136390 -0.230708 -0.592917 -0.690042 -0.055435 -0.626389 -0.720016 0.710719 0.443296 0.496610 -0.497099 -0.018900 -0.735945 0.335732 -0.229527 -0.247282 -0.978405 0.447804 -0.179711 0.083109 -0.230849 -0.398747 1.197168 -0.954674 -0.166792 0.440634 1.305913 0.440058 -0.046043 0.255904 -0.124345 0.302091 0.542721 -0.586796 0.015936 0.122632 -0.603933 -0.254571 0.339747 1.014224 -0.212661 -0.431589 0.460598 0.781897 0.473450 0.530854 -0.107895 0.113079 -0.472548 0.193248 -1.522769 -0.187255 -0.174358 -0.264976 0.612538 -0.308111 -0.828472 -0.419061 -0.434278 -0.098283 0.966905 -0.292335 -0.686666 0.190054 0.315130 0.298856 0.788810 -0.582053 