-2.137312547232357028e+05
-2.137317896012300916e+05
-2.137340501899906958e+05
-2.137310711229903973e+05
-2.137332175033933017e+05
-2.137311362466363062e+05
-2.137310766596907924e+05
-2.137323173878015077e+05
-2.137311504317949875e+05
-2.137322040297997009e+05
-2.137294749578704941e+05
-2.137328361399213027e+05
-2.137339263788714889e+05
-2.137349548852585140e+05
-2.137328524331458902e+05
-2.137324109654398926e+05
-2.137323905880585080e+05
-2.137314991029654921e+05
-2.137336477175591863e+05
-2.137308110919524916e+05
-2.137321434073249111e+05
-2.137325986490256037e+05
-2.137300824267228891e+05
-2.137341467610172986e+05
-2.137325329821043124e+05
-2.137308379902701126e+05
-2.137298964019432024e+05
-2.137320935619189113e+05
-2.137313662250129855e+05
-2.137340686179483891e+05
-2.137345208127904043e+05
-2.137334065287724079e+05
-2.137290821486097993e+05
-2.137332756903131085e+05
-2.137325700880924123e+05
-2.137304942398703133e+05
-2.137335739506251120e+05
-2.137327499235066934e+05
-2.137307164665398013e+05
-2.137321578831011138e+05
-2.137308552331720130e+05
-2.137316233290582895e+05
-2.137311601791850990e+05
-2.137325817110271892e+05
-2.137330592090552964e+05
-2.137307975519757892e+05
-2.137312593116193893e+05
-2.137312678721848933e+05
-2.137311526412233943e+05
-2.137326328757771116e+05
-2.137318452604844060e+05
-2.137326268639659102e+05
-2.137324320595691097e+05
-2.137315663531812024e+05
-2.137310618630922982e+05
-2.137312296261758020e+05
-2.137333889643679140e+05
-2.137332193885981105e+05
-2.137327850400705065e+05
-2.137306714575492952e+05
-2.137331983687558968e+05
-2.137315834126783884e+05
-2.137323929799392063e+05
-2.137341256200846110e+05
-2.137331166113347863e+05
-2.137332981033782125e+05
-2.137323989214090107e+05
-2.137298624009100895e+05
-2.137324921371359087e+05
-2.137319452479004103e+05
-2.137332393331823114e+05
-2.137323385393467906e+05
-2.137325524455913110e+05
-2.137314817523065140e+05
-2.137339677691560064e+05
-2.137342528080005141e+05
-2.137315026977254893e+05
-2.137312079769344127e+05
-2.137341218768864928e+05
-2.137324062423598953e+05
-2.137322139797784912e+05
-2.137346850831565971e+05
-2.137317838246613101e+05
-2.137335236317410890e+05
-2.137312126921231102e+05
-2.137319986367727979e+05
-2.137301645053742977e+05
-2.137320271159356926e+05
-2.137327054511246097e+05
-2.137297746267798066e+05
-2.137319912668413890e+05
-2.137302494398606068e+05
-2.137307123135383008e+05
-2.137321201336997910e+05
-2.137334659823821858e+05
-2.137334420853442862e+05
-2.137314753709647048e+05
-2.137326359343366930e+05
-2.137314940091304015e+05
-2.137310473010560090e+05
-2.137337667842374067e+05
-2.137344012588922924e+05
-2.137322065435874101e+05
-2.137312494987859973e+05
-2.137300262714049895e+05
-2.137302112134436902e+05
-2.137317353443145112e+05
-2.137335075511733885e+05
-2.137320741589773097e+05
-2.137318341613688099e+05
-2.137316561738796881e+05
-2.137338595029484131e+05
-2.137341331765498908e+05
-2.137304006544766889e+05
-2.137330531722095911e+05
-2.137291703462853038e+05
-2.137314907765540120e+05
-2.137326680384642095e+05
-2.137346061681006977e+05
-2.137303259238514001e+05
-2.137316628661116119e+05
-2.137318143088950892e+05
-2.137319975217863102e+05
-2.137300896441345103e+05
-2.137314323304457066e+05
-2.137318003777546983e+05
-2.137340228707130009e+05
-2.137320612199639145e+05
-2.137329123490770871e+05
-2.137300281272213906e+05
-2.137318288660334074e+05
-2.137304612853869912e+05
-2.137327171227677027e+05
-2.137341651062525052e+05
-2.137330504139275872e+05
-2.137316060287404107e+05
-2.137329633037552121e+05
-2.137319241979896906e+05
-2.137334340476455109e+05
-2.137309414698590990e+05
-2.137310642300746113e+05
-2.137305545340396930e+05
-2.137324641256006144e+05
-2.137316838445923931e+05
-2.137323957058397064e+05
-2.137307164790570969e+05
-2.137340817162843887e+05
-2.137338743599561858e+05
-2.137327960945593950e+05
-2.137323036608826078e+05
-2.137313353153293137e+05
-2.137334680508555030e+05
-2.137333648074613011e+05
-2.137302586937721935e+05
-2.137327118604941061e+05
-2.137314089886562142e+05
-2.137319995192379865e+05
-2.137299460696587921e+05
-2.137317714738220093e+05
-2.137330893543713028e+05
-2.137344693930697977e+05
-2.137308611785873945e+05
-2.137310448667255114e+05
-2.137344783065668889e+05
-2.137299383129175985e+05
-2.137318566130739928e+05
-2.137312947581211920e+05
-2.137314396050011856e+05
-2.137306276253151009e+05
-2.137318942470990005e+05
-2.137336816379104857e+05
-2.137294737783930905e+05
-2.137328866208491090e+05
-2.137320656678008090e+05
-2.137339001326748112e+05
-2.137329972710461006e+05
-2.137310911715221882e+05
-2.137303721422519884e+05
-2.137318059741840989e+05
-2.137310951605750888e+05
-2.137334683960319089e+05
-2.137330985988948960e+05
-2.137316502087360132e+05
-2.137311390794774925e+05
-2.137330486662765034e+05
-2.137317783676903055e+05
-2.137330880569324945e+05
-2.137331336013069958e+05
-2.137339200768508890e+05
-2.137302412948129058e+05
-2.137287503263204999e+05
-2.137335642013303004e+05
-2.137312106878685008e+05
-2.137343782943885890e+05
-2.137319278904384992e+05
-2.137327529511814064e+05
-2.137306055760663003e+05
-2.137327842410081939e+05
-2.137316028213344107e+05
-2.137340416189488024e+05
-2.137304958359540033e+05
-2.137303521446055092e+05
-2.137350476194799121e+05
-2.137334642173156899e+05
-2.137319957432502124e+05
-2.137319729967096937e+05
-2.137348070381873113e+05
-2.137338518798151053e+05
-2.137348821916774032e+05
-2.137327401850963943e+05
-2.137324216899907042e+05
-2.137309728564223915e+05
-2.137349710433786095e+05
-2.137313071726351045e+05
-2.137305937701349903e+05
-2.137297755378170114e+05
-2.137321473646764935e+05
-2.137318700361778901e+05
-2.137314063179948134e+05
-2.137312244532915938e+05
-2.137317917310651101e+05
-2.137321320212651917e+05
-2.137339780259431864e+05
-2.137322004478290910e+05
-2.137319924698566901e+05
-2.137323557218394999e+05
-2.137309139822789875e+05
-2.137315583650071931e+05
-2.137340383228338032e+05
-2.137316825672900013e+05
-2.137332713175796962e+05
-2.137344240402634023e+05
-2.137343939918199030e+05
-2.137309322726831888e+05
-2.137328821055279986e+05
-2.137312312987234909e+05
-2.137304519415418035e+05
-2.137331498218771885e+05
-2.137304567863928096e+05
-2.137307881142513070e+05
-2.137322236477111874e+05
-2.137302365803045104e+05
-2.137309113825033128e+05
-2.137344025304802926e+05
-2.137347906577500980e+05
-2.137321312454687140e+05
-2.137342162005249120e+05
-2.137310950526818924e+05
-2.137329012276481953e+05
-2.137315749627272016e+05
-2.137310360494205961e+05
-2.137300050697907864e+05
-2.137318365435895103e+05
-2.137323033924422925e+05
-2.137340184613802994e+05
-2.137341760840053030e+05
-2.137308066178566951e+05
-2.137311455707532878e+05
-2.137340549972899025e+05
-2.137308201159278979e+05
-2.137320314350627013e+05
-2.137333578159043100e+05
-2.137303613462712092e+05
-2.137297960386018967e+05
-2.137315063416020130e+05
-2.137320664117599954e+05
-2.137308675402009103e+05
-2.137324093156137096e+05
-2.137301352332716924e+05
-2.137302933122316026e+05
-2.137324166500341089e+05
-2.137335254106853099e+05
-2.137315938315094099e+05
-2.137341316705358913e+05
-2.137353423130596930e+05
-2.137331834321549104e+05
-2.137294699085259927e+05
-2.137340518504293868e+05
-2.137323840177337115e+05
-2.137338787873845140e+05
-2.137339876831274887e+05
-2.137297016970039986e+05
-2.137327855523248145e+05
-2.137308834157307865e+05
-2.137317005435388128e+05
-2.137319261177529115e+05
-2.137321019186711928e+05
-2.137340625313059136e+05
-2.137321365463823895e+05
-2.137311635362535890e+05
-2.137328281992310949e+05
-2.137320898579052882e+05
-2.137330798748772941e+05
-2.137299441883997060e+05
-2.137318047557942919e+05
-2.137317274479788030e+05
-2.137321941841765074e+05
-2.137331982533796108e+05
-2.137326918633918976e+05
-2.137337253543603001e+05
-2.137301796070125129e+05
-2.137317924140708928e+05
-2.137303000897711900e+05
-2.137316407316910918e+05
-2.137333591972902068e+05
-2.137321874481344130e+05
-2.137329655145441066e+05
-2.137312183545400912e+05
-2.137301605250290886e+05
-2.137322906028194120e+05
-2.137296758902710862e+05
-2.137322226263319026e+05
-2.137303863376149093e+05
-2.137349284349762893e+05
-2.137329899226117122e+05
-2.137314634937396040e+05
-2.137319211062322138e+05
-2.137316590136598097e+05
-2.137306499864064099e+05
-2.137327301194691972e+05
-2.137313810452854086e+05
-2.137324753044456011e+05
-2.137347386619645113e+05
-2.137328925737476093e+05
-2.137302743679377891e+05
-2.137321513710086874e+05
-2.137331914732549922e+05
-2.137315988620780117e+05
-2.137307114618220075e+05
-2.137296250278397056e+05
-2.137318496866881906e+05
-2.137345156238515046e+05
-2.137320662720295950e+05
-2.137329046556024114e+05
-2.137306462138200004e+05
-2.137302104455385124e+05
-2.137322952328365063e+05
-2.137326822131465015e+05
-2.137312788400055142e+05
-2.137341374575810041e+05
-2.137321439949547057e+05
-2.137306273195951944e+05
-2.137323520974190906e+05
-2.137307518470541108e+05
-2.137319141409340955e+05
-2.137306425962024950e+05
-2.137300702278591925e+05
-2.137304973831932875e+05
-2.137329601645137882e+05
-2.137316986828242952e+05
-2.137313954025561106e+05
-2.137348391899346898e+05
-2.137342569569202897e+05
-2.137325930509635073e+05
-2.137336570065735141e+05
-2.137318865220590960e+05
-2.137327074898015999e+05
-2.137330391858301009e+05
-2.137341221884569095e+05
-2.137338557838324050e+05
-2.137314388713822991e+05
-2.137328101520967030e+05
-2.137342493234467111e+05
-2.137307971123757889e+05
-2.137331209754967131e+05
-2.137339230294220906e+05
-2.137320093837731110e+05
-2.137321547030427027e+05
-2.137327874458289880e+05
-2.137319016186631052e+05
-2.137301633892994141e+05
-2.137316758131523093e+05
-2.137322760719401122e+05
-2.137337512464007887e+05
-2.137321524144292052e+05
-2.137317813293774088e+05
-2.137316494730763079e+05
-2.137325175498478930e+05
-2.137298052202672989e+05
-2.137340419200427132e+05
-2.137326242863674997e+05
-2.137331926730049890e+05
-2.137341374185326858e+05
-2.137305853686200862e+05
-2.137334441795324092e+05
-2.137307729100261931e+05
-2.137323364348183095e+05
-2.137329787026775884e+05
-2.137310282943120110e+05
-2.137291612190428132e+05
-2.137315145194393117e+05
-2.137305697223460884e+05
-2.137313381303469941e+05
-2.137336879954423057e+05
-2.137339508461238875e+05
-2.137317274317881092e+05
-2.137334054642629926e+05
-2.137331539329731895e+05
-2.137327842048169987e+05
-2.137332267934961128e+05
-2.137319322845329007e+05
-2.137346582798068121e+05
-2.137318516012812033e+05
-2.137311042046869115e+05
-2.137320172411963867e+05
-2.137338940101132903e+05
-2.137329313861617120e+05
-2.137333993052382139e+05
-2.137332017592944030e+05
-2.137311546397636121e+05
-2.137324156389952113e+05
-2.137312028832352953e+05
-2.137311747911543061e+05
-2.137340338073766034e+05
-2.137327379490009043e+05
-2.137326244187509001e+05
-2.137304779569859093e+05
-2.137301198470024974e+05
-2.137322907051341899e+05
-2.137332341341752035e+05
-2.137325046347806056e+05
-2.137315410475459939e+05
-2.137337194620071095e+05
-2.137290890839754138e+05
-2.137329461558208859e+05
-2.137339724854331871e+05
-2.137336097012142127e+05
-2.137315666281522135e+05
-2.137314534104249906e+05
-2.137323525672236865e+05
-2.137317914975915046e+05
-2.137327268761442974e+05
-2.137300483229667880e+05
-2.137324306833533046e+05
-2.137320666407438111e+05
-2.137301371104491118e+05
-2.137338154753365088e+05
-2.137318151782987989e+05
-2.137311712823823909e+05
-2.137308863268046989e+05
-2.137336825130285870e+05
-2.137338084580645955e+05
-2.137291675179339945e+05
-2.137316164307002036e+05
-2.137315810120900860e+05
-2.137342689812229073e+05
-2.137303163138788950e+05
-2.137315633592485974e+05
-2.137305031726874877e+05
-2.137310699916770973e+05
-2.137305028412528045e+05
-2.137337233645278029e+05
-2.137341977404576901e+05
-2.137331866922148038e+05
-2.137322717211118143e+05
-2.137306766132902994e+05
-2.137308444766477915e+05
-2.137330948493022006e+05
-2.137342501914897875e+05
-2.137346075075810950e+05
-2.137315992429013131e+05
-2.137313734616086003e+05
-2.137329917714892945e+05
-2.137341976080742897e+05
-2.137342683916882961e+05
-2.137335719032404886e+05
-2.137328360325722897e+05
-2.137334583497249114e+05
-2.137320756170992972e+05
-2.137331018105185940e+05
-2.137309793517797953e+05
-2.137311871362791862e+05
-2.137339618320401059e+05
-2.137333588455829886e+05
-2.137317269491942134e+05
-2.137309152586289856e+05
-2.137306083367973042e+05
-2.137337320966610860e+05
-2.137324010879794077e+05
-2.137337406638934044e+05
-2.137306223260340048e+05
-2.137343693155841029e+05
-2.137309797618553857e+05
-2.137342966624120018e+05
-2.137319587560397922e+05
-2.137328151913729962e+05
-2.137307310455832921e+05
-2.137316381712359143e+05
-2.137325370097974082e+05
-2.137334894153299101e+05
-2.137320331805369933e+05
-2.137316170283982938e+05
-2.137323106420992990e+05
-2.137307721225288115e+05
-2.137319001213567099e+05
-2.137312550143976114e+05
-2.137289568955593859e+05
-2.137299463530654029e+05
-2.137306310580311983e+05
-2.137319739503327000e+05
-2.137301842129474971e+05
-2.137329078996076132e+05
-2.137318527045667870e+05
-2.137316504129575042e+05
-2.137306437320057012e+05
-2.137314868446449982e+05
-2.137338087470495084e+05
-2.137328798766435066e+05
-2.137295322204196127e+05
-2.137314257798490871e+05
-2.137304028711160936e+05
-2.137308498334808974e+05
-2.137333242427700898e+05
-2.137306195465271012e+05
-2.137306618716588127e+05
-2.137324177450202988e+05
-2.137336144301446038e+05
-2.137318753520578903e+05
-2.137317698435880011e+05
-2.137321186706796871e+05
-2.137307585342517996e+05
-2.137341048816081020e+05
-2.137345338296282862e+05
-2.137340096853006107e+05
-2.137327764294361114e+05
-2.137301743667800911e+05
-2.137344831284242973e+05
-2.137325244450765895e+05
-2.137299636418184964e+05
-2.137300231808720855e+05
-2.137330982085475989e+05
-2.137330253136024112e+05
-2.137309300488327863e+05
-2.137329087241124944e+05
-2.137301135791321867e+05
-2.137297801588542934e+05
-2.137322076486416918e+05
-2.137324338206899120e+05
-2.137305851071185898e+05
-2.137326715758081118e+05
-2.137318450976242020e+05
-2.137342413434360060e+05
-2.137322720868329052e+05
-2.137321928833363054e+05
-2.137317842703837960e+05
-2.137320971286511049e+05
-2.137336600473095896e+05
-2.137331503903229896e+05
-2.137318360607234936e+05
-2.137324698768628004e+05
-2.137324437182868132e+05
-2.137311762387999916e+05
-2.137320673155862023e+05
-2.137313911016607017e+05
-2.137317061624175112e+05
-2.137349754914875084e+05
-2.137321972002864059e+05
-2.137325210235172126e+05
-2.137333122798292025e+05
-2.137318979433574132e+05
-2.137306175640416914e+05
-2.137303358274348138e+05
-2.137328138025038934e+05
-2.137331376922664931e+05
-2.137335365390531078e+05
-2.137317915343267960e+05
-2.137326006041635119e+05
-2.137298932964438864e+05
-2.137312161630711926e+05
-2.137348933811348106e+05
-2.137342979450206039e+05
-2.137300525712081871e+05
-2.137332174897876102e+05
-2.137301781268492050e+05
-2.137306840497535013e+05
-2.137321054711173929e+05
-2.137340391755024903e+05
-2.137315321409876924e+05
-2.137339035953234998e+05
-2.137337656408151088e+05
-2.137340900100423023e+05
-2.137318356843900110e+05
-2.137295485906524118e+05
-2.137325663949633890e+05
-2.137315873142466880e+05
-2.137341452169072872e+05
-2.137310678191201878e+05
-2.137345176290583913e+05
-2.137328905103084107e+05
-2.137324060880712932e+05
-2.137338978911369923e+05
-2.137332545321010984e+05
-2.137317648932928860e+05
-2.137315000357718091e+05
-2.137309148286890995e+05
-2.137328975224099995e+05
-2.137331737911613018e+05
-2.137328951004607079e+05
-2.137330853846385144e+05
-2.137323615808587056e+05
-2.137308840410484117e+05
-2.137297946943595016e+05
-2.137305480212669063e+05
-2.137304180796949076e+05
-2.137300717506083020e+05
-2.137323151167393953e+05
-2.137312799786659016e+05
-2.137339775011716119e+05
-2.137317539552687958e+05
-2.137305144177920884e+05
-2.137310114727783948e+05
-2.137320193219149078e+05
-2.137330165277266060e+05
-2.137313925759734993e+05
-2.137333018009971129e+05
-2.137299660932921106e+05
-2.137303990549914888e+05
-2.137333442982407869e+05
-2.137332302354641142e+05
-2.137322439861803141e+05
-2.137318381634831894e+05
-2.137316165864854120e+05
-2.137322490077691909e+05
-2.137323114964007109e+05
-2.137335985529820900e+05
-2.137329638361459074e+05
-2.137300972453625873e+05
-2.137337726491070935e+05
-2.137292003793544136e+05
-2.137331845731282083e+05
-2.137307166777001985e+05
-2.137331947363082145e+05
-2.137320182969981106e+05
-2.137322025096357102e+05
-2.137328059161003912e+05
-2.137340148490690044e+05
-2.137326409058567078e+05
-2.137309098321346974e+05
-2.137338236526295950e+05
-2.137336199907909904e+05
-2.137324427295610949e+05
-2.137337529782693891e+05
-2.137320251767163863e+05
-2.137341073937630863e+05
-2.137306637291079096e+05
-2.137302732284610975e+05
-2.137344015372648137e+05
-2.137343284492547100e+05
-2.137329188863401068e+05
-2.137327343312473095e+05
-2.137309541487314855e+05
-2.137301898799903865e+05
-2.137339918064686062e+05
-2.137337249778907862e+05
-2.137308056481789972e+05
-2.137323037431970006e+05
-2.137344355838769116e+05
-2.137334080769640859e+05
-2.137305859539369121e+05
-2.137330759775268089e+05
-2.137338789600406890e+05
-2.137303821918244066e+05
-2.137327986758312909e+05
-2.137333455147258064e+05
-2.137323267653888906e+05
-2.137337748310519964e+05
-2.137316323269107961e+05
-2.137342520195505931e+05
-2.137339221185210044e+05
-2.137333097475377144e+05
-2.137326090972448001e+05
-2.137331948737257044e+05
-2.137313838111865916e+05
-2.137338030664008984e+05
-2.137317694254851085e+05
-2.137323789811785100e+05
-2.137310409817560867e+05
-2.137304116891013109e+05
-2.137328150130023132e+05
-2.137319442386300943e+05
-2.137303734398267989e+05
-2.137310030493582017e+05
-2.137320771364468965e+05
-2.137314346074943896e+05
-2.137335872289644030e+05
-2.137338490730967897e+05
-2.137313706687682134e+05
-2.137319890772773942e+05
-2.137324281729669892e+05
-2.137321202414568979e+05
-2.137321528936217073e+05
-2.137315927249584056e+05
-2.137314113047531864e+05
-2.137329991539379116e+05
-2.137302585222044145e+05
-2.137324720988083864e+05
-2.137304019045676978e+05
-2.137296707689524919e+05
-2.137309151331844914e+05
-2.137300660622043943e+05
-2.137335945033837925e+05
-2.137327774114948988e+05
-2.137337700706924079e+05
-2.137330498496996006e+05
-2.137334725454960135e+05
-2.137323618669864081e+05
-2.137322258393162047e+05
-2.137322794257432979e+05
-2.137308444091634883e+05
-2.137333768185664085e+05
-2.137304771243176074e+05
-2.137331501069164951e+05
-2.137309205015824991e+05
-2.137313593794449989e+05
-2.137319796942477988e+05
-2.137331410037559981e+05
-2.137320377934109129e+05
-2.137315429628193087e+05
-2.137345022509525879e+05
-2.137332671542378957e+05
-2.137324128672434890e+05
-2.137334180389159010e+05
-2.137342274083500088e+05
-2.137332550733354874e+05
-2.137330261664071877e+05
-2.137329022027681931e+05
-2.137321086778430035e+05
-2.137326743240219075e+05
-2.137309190736651071e+05
-2.137335137703352957e+05
-2.137324597829357954e+05
-2.137329050353372004e+05
-2.137328598253905948e+05
-2.137299709563746874e+05
-2.137306578611088917e+05
-2.137340383660999069e+05
-2.137323325725703908e+05
-2.137302986802214000e+05
-2.137307337268571137e+05
-2.137330132675305940e+05
-2.137327288935963006e+05
-2.137311182478021074e+05
-2.137315727552036115e+05
-2.137320222208797932e+05
-2.137321637471544964e+05
-2.137332542365854897e+05
-2.137307451334613143e+05
-2.137341145432823105e+05
-2.137348935038580967e+05
-2.137299881285270967e+05
-2.137316861376957095e+05
-2.137344551356649026e+05
-2.137330509410121886e+05
-2.137333380117306951e+05
-2.137321260242843127e+05
-2.137347327253927942e+05
-2.137334232429570984e+05
-2.137304150616803090e+05
-2.137343145894081099e+05
-2.137348243038106884e+05
-2.137338013299063896e+05
-2.137315328590961872e+05
-2.137329145791860938e+05
-2.137344719049526902e+05
-2.137331525866898883e+05
-2.137320428696947056e+05
-2.137304708768558048e+05
-2.137311960288235859e+05
-2.137315536698187934e+05
-2.137358667454198003e+05
-2.137333258527317084e+05
-2.137335753222150088e+05
-2.137331541045409977e+05
-2.137318995554959110e+05
-2.137327655251540127e+05
-2.137328922414965928e+05
-2.137318189990493120e+05
-2.137338096167253971e+05
-2.137322694946764095e+05
-2.137313792320548091e+05
-2.137296043329015083e+05
-2.137321321367775963e+05
-2.137321931838860037e+05
-2.137330381211847125e+05
-2.137327235222051095e+05
-2.137325036558510037e+05
-2.137309679685774026e+05
-2.137312466577813902e+05
-2.137326129000358051e+05
-2.137317703425087093e+05
-2.137317355896251102e+05
-2.137302052013603970e+05
-2.137315382400114031e+05
-2.137324961139436928e+05
-2.137342220992727962e+05
-2.137341019045466091e+05
-2.137318825928712031e+05
-2.137310097594134859e+05
-2.137335232398970984e+05
-2.137306548232299101e+05
-2.137318663763827062e+05
-2.137303961162980122e+05
-2.137323256449601031e+05
-2.137331375624682114e+05
-2.137334433759801905e+05
-2.137319481601988082e+05
-2.137320399612057954e+05
-2.137318658346039883e+05
-2.137334004788653110e+05
-2.137319426886696892e+05
-2.137324373883744993e+05
-2.137299722565347038e+05
-2.137327828662889951e+05
-2.137326879415510921e+05
-2.137304505698159046e+05
-2.137324059992260882e+05
-2.137299747454239987e+05
-2.137305840794807009e+05
-2.137313126206264133e+05
-2.137314225401977892e+05
-2.137327832679291023e+05
-2.137342745186036045e+05
-2.137318391798284138e+05
-2.137312056211087038e+05
-2.137294110304370115e+05
-2.137318220027780044e+05
-2.137317888971354987e+05
-2.137323234430149023e+05
-2.137334883675554884e+05
-2.137330253178201092e+05
-2.137312166721961985e+05
-2.137326203545946046e+05
-2.137309422712344094e+05
-2.137348006202462129e+05
-2.137337516979738139e+05
-2.137347529437236080e+05
-2.137310672653685033e+05
-2.137307229503325070e+05
-2.137315916199040948e+05
-2.137311402095663070e+05
-2.137326436478118121e+05
-2.137311288120778918e+05
-2.137331979509250959e+05
-2.137309374967248004e+05
-2.137317377326576971e+05
-2.137306331686823105e+05
-2.137328662860536133e+05
-2.137330314150750928e+05
-2.137317300949663040e+05
-2.137318294053630088e+05
-2.137321028758315952e+05
-2.137325127269020886e+05
-2.137339020004642080e+05
-2.137339460864446010e+05
-2.137312657880648912e+05
-2.137309059107021021e+05
-2.137338890694782021e+05
-2.137288253437537060e+05
-2.137330562533547054e+05
-2.137314812373309978e+05
-2.137294618376294093e+05
-2.137326994012175128e+05
-2.137314919198403077e+05
-2.137316423141692067e+05
-2.137308123998676892e+05
-2.137321179445438902e+05
-2.137303869251087017e+05
-2.137311541562172060e+05
-2.137310107674592873e+05
-2.137308715087092132e+05
-2.137305310702071001e+05
-2.137309181724239897e+05
-2.137299650494634116e+05
-2.137328224764048064e+05
-2.137317242781246896e+05
-2.137327613652136060e+05
-2.137317157032731920e+05
-2.137308234093218052e+05
-2.137312542101650906e+05
-2.137308920079976087e+05
-2.137332341733596113e+05
-2.137336819626784127e+05
-2.137331956721076858e+05
-2.137303212009074923e+05
-2.137327624154369987e+05
-2.137309472959525010e+05
-2.137321576274501858e+05
-2.137325015188049001e+05
-2.137318833950627886e+05
-2.137332780685882026e+05
-2.137331572001081076e+05
-2.137317146395801974e+05
-2.137315475101137126e+05
-2.137347114675870980e+05
-2.137313069433791970e+05
-2.137312324651395029e+05
-2.137325434299153858e+05
-2.137327445352443901e+05
-2.137306108209246013e+05
-2.137335927947809978e+05
-2.137336581860508886e+05
-2.137334197533692059e+05
-2.137318422570278053e+05
-2.137324901263506035e+05
-2.137321383773004054e+05
-2.137300329835012089e+05
-2.137310143024901918e+05
-2.137325723556170997e+05
-2.137309646304208145e+05
-2.137339321099972003e+05
-2.137312028975212888e+05
-2.137313792396739882e+05
-2.137329465627672034e+05
-2.137323577718090964e+05
-2.137334742496089020e+05
-2.137303737569754885e+05
-2.137339441757971945e+05
-2.137326553508841025e+05
-2.137317699459028081e+05
-2.137286725021688908e+05
-2.137312794060022861e+05
-2.137304916051279870e+05
-2.137307705883508897e+05
-2.137338822547952004e+05
-2.137319215715467872e+05
-2.137347516643803974e+05
-2.137316395264989114e+05
-2.137319388710485073e+05
-2.137321049033518939e+05
-2.137312173364261107e+05
-2.137333181206168083e+05
-2.137310997439245984e+05
-2.137312228633303894e+05
-2.137319191476927954e+05
-2.137318840822863858e+05
-2.137335241109335911e+05
-2.137338579841449973e+05
-2.137298749932504143e+05
-2.137301150597035885e+05
-2.137320955272612046e+05
-2.137319961617612862e+05
-2.137326181628536142e+05
-2.137323979106420884e+05
-2.137325791141086956e+05
-2.137325811663912900e+05
-2.137299383770003915e+05
-2.137335852892009134e+05
-2.137338165127705142e+05
-2.137336135479515069e+05
-2.137317013397438859e+05
-2.137304477411925036e+05
-2.137320248115397117e+05
-2.137304294871154998e+05
-2.137308431739026855e+05
-2.137319189181647089e+05
-2.137322839972558140e+05
-2.137297160058383888e+05
-2.137317948907150130e+05
-2.137323468007231131e+05
-2.137320719653315027e+05
-2.137324972713798925e+05
-2.137342309314078884e+05
-2.137306878989399120e+05
-2.137321572809132049e+05
-2.137340589455256995e+05
-2.137302633010678110e+05
-2.137319035940734902e+05
-2.137299069915256114e+05
-2.137318091634944140e+05
-2.137297203576191096e+05
-2.137324220408815017e+05
-2.137303137920637964e+05
-2.137301781450808048e+05
-2.137344163014816877e+05
-2.137332530180597096e+05
-2.137324071687714895e+05
-2.137327848796593898e+05
-2.137317143956300861e+05
-2.137307951502990036e+05
-2.137294897601834091e+05
-2.137334328473513888e+05
-2.137316621659627126e+05
-2.137305216409181012e+05
-2.137300139026062971e+05
-2.137322369004717912e+05
-2.137333860157422896e+05
-2.137325801859651110e+05
-2.137321421761458041e+05
-2.137314849937265972e+05
-2.137326924278920924e+05
-2.137314845493646862e+05
-2.137321538728234009e+05
-2.137345382099809067e+05
-2.137342788320163090e+05
-2.137300430138896045e+05
-2.137348734662109055e+05
-2.137304611751809134e+05
-2.137317027604503091e+05
-2.137319765431694977e+05
-2.137336814194030885e+05
-2.137345944971379067e+05
-2.137324875878005987e+05
-2.137325129350691859e+05
-2.137312355445158901e+05
-2.137327708354557108e+05
-2.137317775740702054e+05
-2.137304016034736997e+05
-2.137319853539436881e+05
-2.137347101848424936e+05
-2.137345431993243110e+05
-2.137316851768617926e+05
-2.137318941521313100e+05
