-53436.6256682544
-53436.7795680898
-53436.6500869345
-53436.7671870460
-53437.0742468394
-53437.0157063076
-53435.9040760799
-53437.4818035820
-53437.0579835473
-53437.1117844001
-53437.1490988274
-53436.9387980913
-53436.6522551376
-53436.6902874012
-53436.7861527007
-53437.0616829350
-53436.5170681630
-53435.9806117723
-53436.7237345466
-53436.6631641816
-53436.9972081445
-53436.9950297371
-53436.8284251783
-53437.4143300969
-53436.8991381787
-53437.1397669552
-53436.8296232956
-53437.4309176127
-53437.5208579052
-53436.6967717381
-53437.1872989853
-53437.2645153705
-53437.0295056089
-53436.9926066994
-53436.9988796038
-53436.5527863706
-53437.1808645813
-53436.9101542995
-53437.1797904119
-53437.1350510862
-53437.1086402607
-53436.6376750057
-53437.3363011798
-53437.0453034503
-53437.3570027847
-53436.6580498019
-53436.9230326315
-53436.8707858208
-53436.2216594681
-53437.1339544674
-53436.7601875976
-53437.1084242023
-53436.8054510146
-53436.6414516737
-53437.0394351791
-53436.9745909941
-53437.0895897064
-53436.9048582838
-53436.7295889399
-53436.9692111673
-53436.8242471423
-53436.7555273759
-53436.8369137697
-53436.9654807586
-53436.7540024499
-53437.0726638171
-53436.9059543584
-53436.9950642956
-53436.5826344022
-53436.9872049674
-53436.9455554944
-53436.9211183106
-53436.2069876338
-53436.6986781677
-53437.2889480645
-53436.9695113089
-53436.6649776843
-53436.9066490651
-53436.9015402637
-53437.0669092896
-53437.1664923444
-53437.1051463189
-53436.7694179713
-53436.8147375798
-53437.0418580808
-53436.4202968606
-53437.1342493028
-53436.8915335491
-53436.8121160350
-53436.9141931493
-53436.5274297140
-53436.6034917923
-53436.8379812723
-53436.6074277830
-53436.9665298936
-53437.1706141888
-53437.0461132611
-53437.0550913853
-53436.8894807223
-53437.0465353096
-53437.0234924371
-53436.6966446609
-53437.0534850972
-53437.1831070715
-53436.7043796330
-53437.2025983141
-53437.1761638147
-53436.8887328174
-53436.8329403633
-53437.0454001867
-53436.8962326831
-53437.1691513048
-53436.9282361285
-53436.9660607693
-53437.0855805171
-53436.5142320565
-53437.1009054246
-53437.1337890222
-53436.7064512357
-53436.2820529591
-53436.4963173055
-53436.8572104693
-53437.2107750631
-53436.7369445853
-53436.8751486221
-53437.0440558083
-53437.0264768457
-53436.5422125708
-53437.0277555087
-53436.3601765719
-53436.9444983322
-53436.9601665113
-53437.2442985364
-53436.6842521883
-53436.7368494815
-53437.0423734644
-53436.6184550606
-53436.9204780267
-53436.5398356563
-53437.4964800422
-53436.5153175186
-53437.2432957968
-53437.1524705901
-53436.5179763430
-53436.9417450843
-53436.5114121407
-53436.8411919436
-53436.9388429901
-53437.0909501396
-53436.8719003992
-53436.5943789718
-53436.3491550088
-53436.7789412756
-53436.7588097491
-53436.3784516017
-53436.4362566097
-53436.9306995751
-53436.3545462643
-53436.0206793115
-53435.4159311894
-53437.1002799709
-53436.1672147940
-53437.2507107631
-53436.7186264255
-53436.5222524760
-53437.0190391580
-53436.9876223901
-53436.4059625835
-53437.0586038308
-53436.1038077782
-53436.4196711348
-53436.5154952090
-53436.7548851872
-53436.3675890891
-53436.5421352904
-53436.6531736579
-53436.0900409945
-53437.1607004012
-53436.4218304942
-53436.4820952753
-53437.0971147427
-53436.2662616485
-53436.3736637586
-53436.4154502409
-53435.8076358039
-53436.1677741240
-53436.1915424520
-53436.0540112167
-53436.6614889127
-53436.7731588564
-53436.7706268371
-53436.5318099306
-53436.0742996168
-53436.3272588240
-53436.9449782049
-53436.8821199067
-53437.4784927728
-53436.5333816602
-53436.2987278234
-53436.4319490475
-53436.5016443421
-53436.0693290492
-53435.9641049383
-53436.8312653666
-53436.9674563051
-53436.7256264181
-53436.5460495120
-53436.9459708762
-53436.2025510897
-53436.0669084605
-53436.6076286031
-53436.3645278083
-53436.8187081290
-53435.9932105073
-53436.2379212636
-53437.0077615357
-53436.4260293469
-53436.8403577786
-53436.9536346906
-53436.2140608250
-53436.2952966039
-53436.4955732101
-53436.5406015208
-53436.7090066569
-53437.0859537212
-53436.3136695946
-53436.9794097221
-53436.1624190595
-53436.4688270043
-53436.4133887064
-53436.2629618599
-53437.0466695978
-53436.4706296224
-53436.6452076611
-53436.3364501494
-53436.2754333816
-53436.8681965216
-53436.4618832032
-53436.0511606881
-53436.3808795374
-53436.6995815857
-53436.1874574789
-53436.6678007294
-53435.8114700241
-53436.0096495850
-53436.2524632996
-53437.0360717160
-53436.2850943755
-53436.3263894203
-53436.8039467692
-53435.9661351797
-53435.9206094450
-53436.2260063507
-53436.3899009277
-53436.5399308962
-53436.1312002545
-53436.3192377242
-53436.5016371311
-53436.7628905044
-53436.7659349141
-53437.1011054283
-53436.8908233320
-53436.9666040446
-53436.8792429831
-53436.0090790983
-53436.6222515929
-53436.1658491906
-53436.2741211126
-53436.9481288751
-53436.6927085342
-53436.7979965918
-53436.6103838918
-53436.5224203703
-53436.8379373259
-53436.1809453865
-53437.2788765869
-53436.2087710680
-53436.3417969143
-53436.2280401296
-53436.3880898741
-53436.2344696355
-53436.3196254864
-53436.4032342340
-53436.2009917413
-53436.6487628285
-53436.5036005686
-53436.8279364618
-53435.9688802642
-53437.0469195344
-53436.5219145106
-53436.4500944151
-53436.2933338467
-53437.1159613476
-53436.6298311880
-53436.2788141241
-53436.9754427104
-53436.6357236773
-53437.0572370029
-53436.0274689601
-53436.4411588767
-53436.7765408233
-53436.5754180791
-53437.0674291630
-53436.1620183719
-53435.9405953906
-53436.4663371626
-53436.7075356094
-53436.6814481912
-53436.0442012404
-53436.2959755279
-53437.0432391946
-53436.4525586780
-53436.1584461974
-53436.4061518387
-53436.7264843931
-53435.8785916659
-53436.9824744043
-53437.3615417797
-53436.6282914318
-53436.6636195641
-53436.0925285233
-53436.4448366313
-53436.2373139055
-53436.5691602770
-53436.3724576139
-53436.8465034698
-53436.0026211565
-53436.3916431366
-53436.5695182427
-53436.7814156068
-53436.6221217946
-53436.3211302760
-53436.5589108369
-53436.4467778915
-53436.1645139280
-53436.3129714866
-53436.4756853616
-53436.2435243598
-53436.3905730489
-53436.9781174535
-53435.7332102183
-53436.3540993173
-53436.2881230026
-53436.9495744799
-53436.2606291640
-53436.8487801103
-53436.3939341992
-53436.2755769217
-53436.5854015279
-53436.1940037217
-53436.4339811937
-53436.5651670063
-53436.6315272736
-53436.9691367442
-53437.3916676396
-53436.2721046130
-53436.4862116775
-53436.8791199876
-53436.0124641945
-53436.5799608836
-53436.1991078972
-53436.5308998458
-53436.5871977513
-53436.3047899756
-53436.0469285014
-53436.1922786560
-53436.5430744914
-53436.6649704733
-53436.6237702603
-53435.7350668511
-53436.6815646559
-53436.8219673725
-53436.9465605469
-53436.2006151357
-53436.4800804084
-53436.1450195561
-53436.9217991394
-53436.0165695761
-53436.5436211681
-53436.6770789952
-53436.7080605170
-53436.1123778677
-53436.5516760100
-53436.3072697491
-53437.2636010680
-53436.5597221443
-53437.3404709163
-53436.8239831919
-53436.4883900849
-53436.2809567485
-53436.1210427888
-53436.4632636367
-53436.4347916848
-53436.9410585410
-53436.9704956807
-53436.6467508187
-53437.1897357648
-53436.5258060107
-53437.1906213593
-53436.5630603009
-53436.5552694094
-53436.9898859691
-53436.3028850427
-53437.0158004590
-53435.5894617258
-53436.9542778316
-53436.9089318281
-53436.0216062673
-53437.1878622610
-53435.8515621895
-53436.7138162691
-53436.7642293045
-53436.6296051975
-53436.1824353458
-53435.6861399654
-53436.2337386017
-53436.9241980951
-53435.9397440824
-53436.7905277471
-53436.5704130891
-53436.5767688522
-53436.9182343120
-53436.5378335787
-53436.3935984107
-53436.7837579628
-53436.5569629099
-53436.4394783016
-53436.3421996428
-53436.4898449416
-53436.2325815736
-53436.6883359368
-53436.2451556823
-53436.4926475781
-53436.9785497063
-53436.5282361234
-53436.3793599177
-53436.5728607531
-53436.7475812434
-53435.5709034256
-53436.5824515417
-53436.7200551593
-53436.7754933211
-53436.5787301127
-53436.6146329495
-53436.3302550695
-53436.3569652203
-53436.8152439837
-53435.8943447446
-53436.2172912246
-53436.4593752659
-53435.2690178769
-53436.8145763523
-53436.8070356695
-53436.6289375661
-53436.8169951723
-53435.9962773664
-53436.7702891438
-53436.7503017016
-53435.4702576301
-53437.1038779962
-53436.7310861103
-53436.3152454059
-53436.7346253590
-53436.6132556453
-53436.3809545048
-53436.4080812619
-53436.1142566777
-53436.1854815242
-53436.4925896179
-53436.1410617962
-53437.0671363686
-53436.4518700940
-53436.4128206687
-53436.6068024654
-53436.8820056189
-53435.8971008497
-53436.7468745638
-53435.5620072076
-53436.7992481795
-53436.1733100080
-53436.9682706058
-53436.3706310498
-53436.2135708841
-53435.7169190345
-53436.5647631893
-53436.8633211939
-53436.2367072277
-53436.3741829518
-53436.3507715011
-53436.4388841410
-53436.2095387011
-53437.0447088815
-53436.6790406639
-53436.2292223282
-53436.5361455205
-53436.2464214198
-53436.7875983055
-53437.0340353520
-53435.9343799022
-53436.3982357748
-53436.3330110386
-53436.5200939329
-53436.4793126392
-53436.9779793557
-53436.4472866083
-53436.7464838083
-53436.5134222457
-53436.7593444528
-53436.6541844247
-53436.4490636478
-53436.1769533403
-53436.7112695556
-53435.7135724424
-53436.8385117583
-53436.8118763027
-53436.2556109765
-53436.4240603311
-53436.9990600153
-53437.1464640851
-53435.6837629149
-53437.1386093829
-53436.3465074771
-53436.5610672030
-53437.1547605641
-53436.3541127870
-53436.2591085918
-53436.1698713054
-53436.5723665944
-53436.6110848571
-53436.2660329368
-53436.6162814152
-53436.4846188591
-53437.1824369912
-53436.2165569253
-53436.9642468584
-53436.4955777000
-53436.8396534119
-53436.5513543715
-53436.8277609484
-53435.6033523213
-53436.3971033730
-53436.4642738593
-53436.6057182278
-53436.1139429305
-53436.0363163336
-53436.3995534861
-53435.9022201274
-53436.6980837350
-53436.4140994678
-53435.8977318817
-53436.6005703781
-53436.1356532615
-53436.1064682352
-53436.8821672545
-53435.9523196877
-53435.8536301187
-53436.7522002399
-53435.7528696272
-53436.6316165270
-53436.3435742259
-53436.8241353035
-53435.8343801050
-53436.1741810444
-53434.9677807755
-53436.6067001506
-53436.3691270765
-53436.5744508504
-53436.0970438443
-53435.8300356714
-53436.4621921884
-53435.7602533004
-53435.8852768228
-53436.3564238498
-53436.2822661603
-53436.1338758138
-53436.5490390908
-53436.3523977895
-53437.0459465913
-53435.6011662947
-53435.2191237626
-53435.9564205794
-53436.1269394959
-53436.3146481160
-53436.5733387211
-53436.6410228223
-53436.6599324215
-53436.1894303043
-53436.1124362361
-53435.8176706822
-53436.3808041619
-53435.9889849875
-53436.0077417948
-53436.6517679177
-53436.2212548348
-53435.7303387369
-53436.5675903161
-53436.0593906353
-53435.4847014330
-53436.2876281636
-53435.3431317561
-53436.4117605132
-53435.8233261603
-53436.1968184673
-53436.3159656913
-53436.1637379954
-53436.4452785442
-53435.9910424402
-53436.1982337314
-53436.5592814559
-53436.3728834721
-53436.0261200918
-53436.6772968223
-53436.1036364825
-53435.3880192478
-53436.6933446003
-53436.2421270552
-53435.5867845338
-53436.2372835648
-53436.0150027446
-53436.8319894615
-53435.7382871824
-53436.1435229299
-53436.1837572749
-53436.5765142897
-53436.3112498223
-53435.2221364710
-53436.5964805070
-53436.4541691838
-53435.5953595213
-53436.7984428585
-53436.0121950739
-53436.6014695783
-53435.8957808254
-53436.5964308462
-53435.4881038085
-53436.0279353632
-53436.2628979132
-53435.7482909036
-53436.3868140683
-53435.5326821788
-53436.4234982800
-53436.3105498094
-53436.1647203263
-53436.6443885984
-53436.7200061788
-53436.2831950209
-53436.3283331295
-53436.2853528837
-53435.4144684414
-53435.5243093719
-53436.1360236084
-53435.8528209882
-53436.3598896278
-53437.0460914920
-53436.2715745352
-53436.2453985439
-53436.7126482204
-53435.6855976425
-53435.2093901143
-53435.3030417676
-53436.2344582068
-53435.7517731445
-53435.6952963241
-53436.6624882508
-53436.0360832681
-53436.9719219655
-53435.6773053812
-53436.0608501179
-53436.2536222325
-53436.4358440851
-53436.2506472118
-53435.3474493865
-53436.4946995886
-53436.3145653934
-53435.8888503579
-53435.6014623546
-53436.2213210945
-53435.0207009319
-53435.8043618662
-53436.0433625856
-53435.7364456519
-53436.2079940469
-53436.2620138153
-53436.0055213458
-53435.8945220267
-53436.4456067135
-53436.0856556078
-53435.7325100694
-53436.3274638618
-53436.8281352410
-53436.2352980861
-53436.8204696579
-53436.9507811687
-53436.3940727051
-53436.0014072566
-53435.8863572508
-53436.2285185057
-53435.7684530429
-53436.7499785664
-53436.9477160784
-53435.9446248524
-53436.8769364101
-53435.9511866057
-53436.4979622336
-53436.5062071471
-53436.4423451570
-53435.6742834209
-53436.6810981167
-53436.0172021047
-53436.4516383890
-53436.8430896655
-53436.0058828491
-53436.4909440094
-53436.4571499189
-53436.0959118507
-53436.3102420486
-53436.2867276028
-53435.7480245042
-53436.0666824700
-53436.3780235666
-53435.6775502837
-53435.5962791301
-53436.3113136330
-53435.8191542469
-53437.0020074164
-53436.1758303265
-53436.3445995509
-53436.0747144543
-53435.7469001298
-53435.3104703395
-53436.2479219916
-53436.1197231727
-53435.3888032078
-53436.5753239277
-53436.8974286235
-53435.8909419609
-53436.0017717531
-53435.4215506124
-53436.1619638131
-53435.8485864886
-53435.6924159991
-53436.1262358095
-53436.6727466707
-53435.9605263692
-53436.3301990141
-53436.5774426061
-53435.9125042620
-53436.1024116981
-53436.7746073184
-53436.0135518336
-53435.8076484572
-53435.7148406290
-53436.5267913350
-53436.0964170301
-53435.1574831738
-53436.0723880170
-53436.1180182435
-53436.3594139728
-53436.3304844615
-53435.3992465290
-53436.7200664520
-53436.5362174946
-53435.2453639727
-53436.4015012770
-53435.9140176232
-53436.2098961227
-53436.1117188079
-53436.6420856990
-53436.5017957735
-53436.0450388069
-53435.7676060886
-53435.3327672119
-53436.5452062312
-53436.1324036779
-53435.8570836516
-53436.0674375859
-53436.4454699763
-53436.1469919733
-53435.8691207435
-53435.9744136992
-53436.1196856210
-53436.4250901460
-53435.6386056223
-53435.3104699313
-53436.4077752699
-53436.1563911936
-53436.2966700985
-53436.8853739801
-53436.3935865737
-53435.6594639649
-53435.9203195077
-53436.3942540690
-53436.8420844770
-53436.1140561298
-53436.1407220621
-53435.9426287613
-53436.7727017051
-53436.1934060236
-53435.2827879259
-53436.6574540086
-53435.7965606344
-53435.9493877971
-53435.8234267064
-53436.6835442841
-53435.7968609120
-53436.5135999360
-53435.6414260823
-53436.3338813947
-53435.8948582234
-53436.3150054015
-53436.3639948734
-53436.6660223294
-53435.8363155147
-53435.6977482060
-53435.7297555970
-53436.1535352228
-53436.7793793789
-53436.3596236366
-53435.8877069355
-53436.1296077082
-53435.6679045282
-53436.0561396912
-53436.1526587441
-53436.4728408195
-53436.7023536094
-53435.6189879828
-53436.1317949593
-53435.7338223384
-53436.2615052345
-53435.7754531716
-53436.4925822708
-53435.7797867206
-53436.3079523467
-53436.6145147160
-53436.5585728715
-53436.3228047285
-53436.3358855132
-53436.7632473817
-53436.4830661775
-53436.1919447723
-53436.2586767471
-53435.7536949485
-53436.3297943808
-53436.5651041480
-53436.3880158591
-53435.4343354733
-53436.3896814679
-53436.0752393619
-53436.1557223378
-53436.8270658336
-53435.9081675837
-53436.0933201024
-53435.9691096562
-53436.4035064839
-53435.8127345371
-53436.7449964340
-53436.0373717272
-53436.2839433340
-53436.5744712589
-53435.6197237787
-53436.4402871600
-53436.0906788294
-53436.1812101532
-53435.6402061959
-53435.5453275813
-53436.0915600701
-53436.4746261585
-53436.3681750862
-53435.9239918201
-53436.2770969496
-53436.7020263925
-53435.7507927183
-53436.1089850162
-53436.3016014817
-53435.9452855448
-53435.3232926160
-53436.5416453495
-53436.4631583286
-53436.3685384943
-53435.8265097563
-53436.2847064773
-53435.4249895872
-53436.0189252657
-53436.7366004974
-53436.0117973795
-53435.7607016079
-53436.8788270571
-53435.9156918036
-53436.0089586879
-53435.6158020739
-53436.0344029651
-53436.1458875992
-53436.2266747984
-53436.0774230755
-53435.8292336159
-53435.9365847046
-53435.7426165136
-53436.1460032476
-53435.7528033675
-53435.3648118825
-53435.1128724219
-53436.8062347024
-53435.7880240149
-53435.4867730357
-53436.1074467566
-53436.0969027533
-53436.5265502421
-53436.2308654877
-53435.8462452211
-53436.0276692359
-53435.3143701390
-53436.1963030837
-53436.0877439455
-53436.1424789652
-53435.8543497237
-53436.4628394112
-53435.7721484850
-53435.7618104718
-53435.0089975875
-53435.3924244989
-53436.0360439476
-53436.3792536572
-53435.3623670756
-53436.1959364103
-53436.5479276418
-53435.8956993273
-53436.5022563262
-53435.2405736806
-53435.6652843440
-53436.5114018004
-53435.9361983030
-53435.8396631953
-53435.8581770050
-53435.7949000596
-53436.6540098637
-53436.2589966170
-53435.9921427326
-53436.3262232948
-53436.0552939613
-53436.3359581676
-53436.0497794382
-53436.6519862891
-53435.7814223969
-53435.8171898571
-53435.8422443312
-53435.7587381705
-53435.7866299757
-53435.6959583771
-53435.9269954127
-53435.7587823890
-53436.3566491601
-53436.0254174938
-53436.3619400057
-53436.1638581336
-53435.4925483800
-53436.2871062493
-53436.0928833597
-53436.4580691195
-53436.0308110624
-53436.1445398194
-53436.3675684084
-53436.3374135685
-53436.8227653464
-53436.2470045598
-53435.6464728417
-53435.6714713965
-53436.1619638131
-53436.1710043874
-53435.1780658651
-53436.9768326680
-53436.2157846663
-53435.7050631703
-53437.0183233625
-53436.2882383789
-53435.9289636122
-53436.5413886101
-53436.1180268150
-53436.0896234358
-53436.2730070785
-53435.6872492375
-53436.1273186865
-53436.6679729775
-53436.0708976495
-53436.2059861188
-53435.9539496496
-53435.9365146353
-53436.4209718390
-53436.1607749477
-53436.1228595569
-53435.7389265138
-53436.3924918597
-53436.3066512343
-53436.3546164697
-53435.9932623450
-53436.5180706304
-53436.7461005359
-53436.2887058705
-53436.1892946556
-53436.4430912931
-53435.9710147252
