0.038005 0.017401 -0.150243 0.046443 -0.244739 -0.676705 -0.343856 0.248708 -0.724062 0.075520 0.117160 -0.376638 -0.686368 -0.485898 -0.190182 -0.430567 -1.035398 -0.066351 -0.035531 -0.277794 -0.500949 0.009562 0.005902 0.577049 -0.297087 -0.554560 -0.273180 0.776883 0.702574 -0.418219 -1.853544 -0.784169 -0.008442 -0.088135 0.065994 -0.392928 -0.402419 0.088583 -1.007621 0.005696 -0.004896 0.562307 0.618482 -0.461319 -0.194521 0.119027 -0.142342 0.833187 0.219113 0.366597 0.143558 0.142644 0.022898 1.259291 0.107191 0.128149 -0.627178 0.003531 0.025296 0.558607 -0.136854 1.108307 -0.076993 0.142799 0.531410 0.313569 -0.543305 -0.586361 0.922650 -0.327718 -0.680345 -0.338621 0.027888 -0.084620 -0.335134 -0.006526 0.007037 0.587507 -0.307690 -0.697163 -0.029000 0.197131 -0.736522 -1.084940 0.160613 -0.783520 -0.283535 -0.077541 0.482934 -0.702566 0.003574 0.038149 -0.352565 -0.008294 0.013255 0.557090 0.068761 -0.111684 0.093219 -0.757170 0.200862 -0.119438 1.129944 0.624088 -0.111470 0.507275 -0.265921 1.355860 0.258118 0.095023 -0.579673 -0.010264 -0.014031 0.552510 0.130588 1.545862 -0.060062 -0.587652 -0.473921 0.930836 1.008315 0.658089 -0.801879 -0.170480 0.283936 0.044665 0.032956 -0.062475 -0.574299 -0.013675 0.005818 0.565965 0.121584 -0.065382 0.014603 0.187174 0.816019 -0.453346 -0.913212 0.651887 0.489911 0.185868 0.269444 -0.714006 -0.025139 -0.019075 -0.261023 -0.017190 -0.015785 0.571282 0.783222 -0.026991 -0.533983 -0.117459 0.488565 -0.263162 0.747534 -0.622971 0.481846 0.507247 -0.493780 0.587578 -0.021409 -0.024661 -0.544239 0.003068 0.008316 0.583291 0.059811 0.114057 -0.676736 0.798267 -0.727989 -0.319901 -0.495956 -0.965561 -0.948598 -0.103795 0.594058 -0.584245 -0.127712 0.031646 -0.395655 0.009024 -0.007923 0.585591 0.191622 0.534409 0.737782 0.414440 -0.741564 0.486617 -0.576933 -0.147422 0.111555 -0.010738 -0.615400 -0.271585 -0.007875 -0.044629 -0.470050 0.003011 0.019881 0.566366 -0.304603 -0.871896 -0.504551 -0.530934 0.567135 0.106175 1.381754 0.175936 -0.268724 -0.846776 0.648729 0.242643 -0.005904 0.080868 -0.596745 0.009093 0.002222 0.576237 -1.018596 -0.061994 -0.000008 -0.213451 -0.679709 -0.230838 -0.309519 -0.853561 0.289469 0.077618 0.483013 0.126699 -0.009556 0.005255 0.594703 0.137332 -0.135573 0.060022 -0.510579 0.816348 0.478770 1.124984 -1.131276 -0.402720 0.153127 0.218768 0.251886 -0.006455 -0.007923 0.551114 -1.345908 -0.544900 -0.414463 0.515861 0.986475 1.473520 -0.774163 1.030474 -0.981377 0.527943 -0.020602 -0.208960 -0.002335 -0.007558 0.557209 0.580377 -0.114126 -0.046025 -0.727018 0.499384 0.081658 -0.329891 0.049193 0.337144 0.302981 0.317580 0.296935 -0.008971 -0.009877 0.592486 1.081014 0.644817 -0.558652 0.712738 0.007297 0.016026 
-0.020375 -0.133617 -0.250407 0.067898 -0.133939 -0.474451 -0.049140 -0.257728 -0.730354 -0.108562 0.034300 -0.492905 0.393863 -0.666745 -0.305950 0.563083 -0.577067 1.228414 -0.081829 -0.068345 -0.636307 -0.001810 0.006474 0.578853 -0.016081 0.358473 -0.484230 0.886806 0.313345 -0.563986 -0.203297 -0.572921 -0.363477 -1.260174 0.099025 -0.249505 0.024041 0.039879 -0.633718 -0.002365 -0.010614 0.565199 -0.177646 -0.034724 -0.136469 1.082964 -0.617909 0.937511 -0.142642 0.271606 -0.198532 -0.625974 -0.592915 0.385976 0.245005 0.003609 -0.884546 -0.001750 0.021906 0.563436 0.123563 0.425248 -0.351919 0.045633 0.382156 0.417150 0.883013 0.143518 0.260543 -0.237477 -0.458129 0.944029 0.206117 -0.425540 -1.529979 -0.004784 0.005404 0.566065 0.746789 1.221060 -0.619912 -0.477180 -0.000626 -0.695967 0.041304 0.089558 0.243158 0.020754 0.247981 -0.127826 0.172230 -0.012743 -0.498002 0.000650 0.008069 0.547769 -0.433435 -0.228588 0.080625 -0.533975 0.151720 0.194568 0.494456 -0.561911 0.638425 0.868367 -0.227625 0.066544 0.073320 -0.125106 -0.753361 0.000883 0.002161 0.560962 -0.886536 -0.272509 -0.408120 0.486186 0.422543 0.346013 -0.246120 -0.267595 0.051560 -0.028625 0.164053 -0.536064 0.025192 -0.043464 -0.584072 -0.002696 0.008752 0.564423 -0.416361 -0.664839 -0.400699 -0.391079 0.177543 0.236439 -0.867895 0.306341 0.348159 -0.071853 0.294268 0.164043 0.118087 0.099885 -0.445171 -0.009206 -0.005330 0.561494 -0.442221 -0.245010 0.026280 0.468212 1.585600 1.246664 -0.563375 -0.026912 -1.163469 -0.081635 0.428823 -0.095146 0.010032 -0.089006 -0.211528 0.002477 0.008345 0.564512 -0.026037 1.214366 0.083910 0.875213 -0.954638 0.059317 0.297498 -0.571113 -0.078035 0.019549 -0.289005 0.331591 0.161642 -0.014312 -0.394020 0.004036 -0.002525 0.549180 0.539443 0.526760 0.085295 -0.325601 0.390216 0.563701 -0.292705 -0.099979 0.229630 0.307590 0.376634 0.216066 0.159629 0.024942 -0.376119 0.002619 0.010829 0.551927 0.022703 0.097988 0.186971 -0.454304 -0.243884 -0.102172 0.902356 -0.063969 0.639770 0.312814 0.102611 0.037091 0.108549 0.022177 -0.272910 -0.002270 -0.006182 0.570333 0.686478 -0.443825 0.224558 -0.066865 0.037650 -1.103080 -1.182758 1.161106 -0.090642 0.241566 0.398943 -0.209137 0.001333 0.014588 0.578859 0.213208 -0.828852 0.297475 -0.340673 0.647513 0.178767 -0.401309 -0.555089 1.236738 -0.440550 0.247223 -0.341600 -0.004117 -0.017859 0.567422 -0.042285 -0.197632 -0.134519 -0.804872 0.168790 -0.024922 -0.640501 -0.338742 -1.003168 -0.264864 0.224674 -0.856606 -0.008367 -0.003060 0.566444 -0.853526 -1.021517 -0.492820 1.160624 -0.300390 -0.146020 -0.463121 0.677537 0.055870 -0.217211 0.078673 -0.505547 -0.009111 -0.010516 0.603848 0.222109 -0.417574 0.370818 0.937259 -0.042740 -0.717006 
-0.177530 0.073422 -0.477390 0.068829 0.005486 -0.649668 0.079112 0.028482 -0.422259 -0.022206 -0.034695 -0.737143 -0.178852 -0.361330 0.099284 0.266761 -0.044774 -0.558028 0.208201 -0.243737 -0.852103 0.007558 0.013635 0.545228 -0.173555 -0.722509 -0.145912 -0.376542 -0.484009 0.798913 -0.873895 -1.384367 -0.104006 -0.220183 -1.006004 -0.207495 -0.216437 -0.031222 -1.046071 0.009119 -0.011086 0.571327 0.371960 0.116138 0.158095 0.411122 -0.074178 -0.368710 0.753588 0.270967 -0.288015 -0.592100 0.619633 0.068870 0.030601 -0.120387 -0.757548 -0.001487 0.012266 0.580304 0.174013 -0.387061 -0.695177 -0.356671 0.482612 0.485129 0.438575 0.524423 -0.649271 0.274085 -0.670762 0.477344 0.085041 0.038505 -0.491840 -0.000189 0.020767 0.574947 -0.342206 0.098635 -0.481606 -0.281935 -0.510378 0.702284 0.590105 0.114008 0.533201 -0.243744 0.551788 0.542220 0.038304 -0.034051 -0.358254 -0.000938 0.006598 0.564871 0.409737 -0.431491 0.395155 1.502985 0.289192 0.104548 -0.437921 -0.028860 -0.532422 1.342936 0.008924 0.990285 0.142175 -0.214663 -0.696317 -0.019205 -0.004211 0.541169 -0.405054 0.207826 -0.176900 0.073948 -0.727981 -0.142408 0.822983 1.539707 0.197664 -0.496524 0.562782 0.589612 0.209229 0.082466 -0.542678 -0.003321 0.009708 0.556889 -0.980725 -1.202645 -0.001580 0.241642 0.451918 -0.059534 -0.069544 -0.796029 -0.331629 0.180060 0.853423 0.465964 0.092938 -0.023011 -0.358096 -0.013238 -0.012782 0.575600 0.304632 1.399021 -0.376457 -0.120170 -0.027180 -0.420846 -1.124569 0.177982 0.087876 0.101693 -0.201344 0.120805 0.077773 -0.106133 -0.476592 0.010267 0.017638 0.557824 -0.574010 -0.141720 -0.185230 -0.031103 -0.077389 0.099288 -0.013045 -1.469678 -0.484181 -0.146480 0.301688 -0.333474 -0.095666 0.034471 -0.422814 0.003310 -0.016484 0.563409 0.314662 0.232175 0.232748 -0.504473 -0.433293 -0.363826 0.518956 -0.215024 -0.086823 0.547210 1.369289 0.340213 -0.051830 -0.133704 -0.468167 0.007518 0.010375 0.568975 1.168677 0.427779 0.026068 0.803939 0.646929 0.334614 -0.393456 0.638451 -0.111744 -0.039214 -0.095240 -0.238629 -0.039369 -0.001900 -0.282729 -0.004916 0.008574 0.574990 0.059670 -0.049935 -0.102981 -0.201997 -0.338154 0.168484 0.803545 -0.957606 -0.299206 -0.535609 0.529818 1.091763 -0.015767 -0.005909 0.577158 0.372754 0.549546 0.266733 0.077945 0.761547 -0.375693 -0.794635 0.115922 -0.516484 0.081416 0.048183 0.425100 -0.002847 -0.006811 0.569618 -0.493654 -0.578974 0.179063 -0.713581 -0.061307 0.219876 -0.344473 -0.133659 -0.914746 0.081278 -0.913552 0.272417 -0.014226 0.001713 0.571068 0.037610 0.486475 0.300687 -0.673677 0.649958 -0.634911 0.037040 0.517416 0.920032 -0.695278 0.311664 0.201214 0.003683 -0.011037 0.576435 -0.237346 -0.405345 -0.512104 0.106209 -0.276320 -1.225664 
-0.022020 -0.045409 -0.307246 -0.023076 -0.017635 -0.144653 0.058214 -0.019560 -0.059971 0.053002 -0.158943 -0.416083 -0.978538 0.203397 0.426577 0.259925 -0.377316 -0.139142 0.010171 0.022524 -0.318580 -0.004813 0.001715 0.581297 -0.925556 0.104634 -0.574393 0.352166 -0.052040 0.239524 -0.526252 -0.775141 -0.510477 -0.973161 -0.433996 -0.088283 -0.004826 0.038009 -0.508244 0.003548 -0.003051 0.600072 0.237332 -0.330699 0.180929 1.521554 -1.449662 0.210975 0.275695 1.387809 0.201450 -0.316203 1.061109 -0.878461 -0.090246 0.004110 -0.225120 -0.000656 0.014483 0.586121 -0.517985 -0.560097 -0.121384 -0.485757 0.978177 0.414542 0.332148 0.617806 -0.321536 -0.431720 -0.269227 -0.413853 -0.103282 0.026585 -0.400780 -0.008766 0.003089 0.580254 0.404833 -0.824936 -0.417413 -0.347183 0.713230 0.204436 0.821465 -0.197353 -0.447278 -0.157421 -0.432255 -0.172025 -0.070067 -0.119548 -0.895810 0.005935 0.007162 0.557600 0.444645 -0.684719 -0.194784 0.057954 -0.203395 1.371382 0.512062 -0.602002 -0.330035 0.663321 -0.433778 -0.098149 -0.119107 0.013893 -0.766366 -0.014265 -0.004350 0.580831 0.072463 0.997408 -0.720432 -0.274756 -0.118814 -0.200902 -0.079775 0.602720 -0.554008 0.137120 0.193080 -0.095559 -0.057388 -0.096431 -0.719945 -0.008706 0.009813 0.572352 0.771639 0.058528 0.221896 -0.669907 0.081886 -0.431800 -0.913980 0.259994 0.383215 0.776832 -0.788668 -0.096133 -0.124357 -0.022527 -0.759215 -0.006516 -0.005403 0.565123 0.028163 1.336194 0.350861 -0.540992 -0.377496 -0.114211 -0.701114 -0.262432 0.194133 0.932451 -0.375449 -0.153536 0.089742 0.099894 -0.260717 0.001556 0.016362 0.553291 -0.103099 0.104096 -0.010358 -0.505462 -0.180216 0.711618 0.036250 1.591926 0.097959 0.584403 0.812378 0.502820 0.079280 0.093714 -0.229835 0.011607 -0.004996 0.553496 0.505295 0.344393 0.523754 0.266808 0.212607 -0.345574 0.335625 -0.056174 0.507166 0.498396 0.122302 0.172230 0.131590 -0.101811 -0.386886 0.004356 0.017244 0.549938 -0.334425 -0.151473 -0.291384 -0.131005 -0.103514 0.914739 1.117236 0.913761 -1.016267 0.275486 0.411312 0.789259 0.074930 0.105636 -0.356092 -0.005199 -0.005431 0.559060 0.409847 -0.405916 0.342074 0.672305 0.145829 0.488641 -0.602771 -0.901113 -0.208343 0.080306 0.265846 0.090060 -0.000038 0.006168 0.591980 -0.187796 0.424295 -0.464950 0.464527 -0.032752 -0.192473 -0.385876 -1.233172 0.407854 0.127749 -0.651102 -0.608973 -0.003373 -0.011266 0.601720 0.134191 -0.336382 0.090534 -1.208778 -0.288849 0.236988 -0.733456 0.287785 -0.606575 -0.842450 -0.624997 -1.213378 -0.006080 0.003452 0.577074 -0.391426 0.718950 0.001118 -0.128038 -0.019926 -0.250207 0.751743 -0.339388 0.801218 0.050700 0.657845 -0.092220 -0.000710 0.000879 0.583074 0.054685 -0.123288 -0.285144 -0.422877 -0.479932 -0.856048 
-0.139837 -0.079199 -0.867724 -0.113613 0.105293 -0.733118 0.032449 0.047652 -0.673362 -0.110303 -0.096246 -0.830221 0.139368 -0.911849 0.483960 0.986271 0.601203 -0.272504 0.061552 0.077886 -0.557233 0.002984 0.010732 0.556663 0.452279 -0.343774 0.707026 -1.021651 0.478501 -0.739145 0.819219 0.491359 0.345146 -0.208729 -0.114211 0.881394 0.173894 0.111293 -0.722631 -0.004784 -0.004209 0.554598 0.215000 0.753619 -0.092484 0.377797 -0.259654 0.162946 0.439101 0.159812 0.169118 0.895853 0.291046 -0.306278 -0.029366 0.010683 -0.228197 0.000837 0.010728 0.552388 0.352525 0.076648 0.504651 -0.429521 -1.092610 -0.399804 0.086081 -0.537561 0.075335 1.368229 0.190249 -0.155808 -0.008304 0.032133 -0.312877 -0.004925 -0.003150 0.560231 0.039723 -0.464318 0.022400 0.331144 0.470176 0.644986 0.712772 0.339488 -0.776585 0.135693 0.054001 0.075931 -0.029034 -0.058612 -0.417253 -0.002071 0.007692 0.585779 0.146653 0.639675 0.676990 1.372284 1.084675 -1.149881 -0.336147 0.588495 0.378542 -0.596957 -0.640857 -0.091404 0.035128 0.073484 -0.413065 -0.005427 -0.018760 0.596909 -0.723769 -0.224375 -0.348815 -0.288273 -1.053632 -0.410209 -0.346156 -0.683230 0.002492 -0.151927 0.576960 -0.186506 0.041765 -0.039059 -0.219433 -0.021638 0.015189 0.576972 -0.113675 -0.215213 0.864892 -0.683626 -0.163246 0.439194 -0.666603 -0.246978 -0.922520 -0.043547 -0.383845 -0.059803 0.062617 -0.118420 -0.395569 -0.015235 -0.008737 0.559523 0.142549 0.162286 -0.448581 0.545742 -0.939991 -0.309719 -0.164357 0.342568 0.488131 0.136466 -0.048920 -0.236668 0.104608 -0.115367 -0.573513 0.000819 0.012944 0.573626 -0.027599 -0.124630 -0.653878 -0.102736 -0.025819 0.702327 -0.332786 0.227025 -0.465171 0.538828 0.243218 0.094074 -0.051687 -0.102669 -0.604365 0.008669 -0.015161 0.583715 0.179307 0.417996 -0.686761 0.191873 -0.265249 0.153159 -0.812833 -0.298531 0.421188 0.078445 0.536739 -0.693242 -0.244137 0.096708 -0.510189 0.007199 0.010675 0.605283 1.187612 -0.481885 -0.000687 0.021047 0.310853 -0.598541 1.226268 0.578697 -0.278827 -0.407180 -0.014602 -0.349840 0.002274 -0.035647 -0.301948 -0.002612 -0.001927 0.587577 -0.728976 0.937484 0.134099 -0.189293 -0.056520 0.299715 -0.453467 0.637524 0.338143 -0.805077 -0.678802 0.217559 -0.000835 -0.003224 0.571091 -0.728280 -0.339273 0.011174 0.156945 -0.379413 0.473969 -0.052299 -0.404975 -0.057610 -0.066843 0.219848 0.219226 -0.001273 -0.008406 0.552580 -0.083884 0.331632 -0.141965 -0.547816 0.707424 0.139267 -0.607503 -0.220241 0.735966 0.010802 -0.353754 0.598132 -0.002092 0.010444 0.565881 -0.425227 0.290984 -0.489325 0.484024 -0.185498 0.666811 -0.065604 -0.354638 0.145041 -0.677342 -0.334146 -0.631992 0.002111 -0.011763 0.584731 0.130978 0.090265 -0.669515 -0.760926 0.098809 -0.455767 
0.187624 -0.148538 -0.783886 -0.119334 -0.101136 -0.619375 0.086039 -0.177685 -0.977756 -0.144369 -0.004472 -0.580287 -0.718366 0.364627 0.227714 0.416990 0.802879 -0.372461 0.001372 -0.006828 -0.249467 0.001702 0.007568 0.563462 -0.144385 0.216952 0.037552 0.247806 -0.046848 -0.125641 0.750927 0.393265 -0.004144 0.356725 -0.091408 0.617976 0.139867 -0.116739 -0.772672 -0.000869 -0.001779 0.542660 0.605288 -0.430623 0.001661 -0.057603 0.063941 -0.240767 0.392822 0.000813 0.724940 0.002238 -0.103986 -0.419146 0.049741 -0.068599 -0.742569 -0.003656 0.011006 0.550324 0.209725 0.237300 -0.398169 0.504383 0.344740 0.217141 -0.895644 -0.184381 0.542857 0.158217 0.010692 0.588908 0.122814 0.035735 -0.659905 -0.004811 0.002474 0.565984 0.450525 0.050274 -0.459798 -0.169739 0.589476 -0.238083 0.303335 0.445984 -0.814763 -0.009738 -0.686118 -0.698038 -0.049845 -0.017895 -0.446403 0.000208 0.003780 0.573962 -0.212548 0.838887 -0.304105 0.235612 -0.068307 0.903127 -1.112681 0.069774 0.451245 -0.404000 -0.987377 -0.320262 0.005842 -0.004741 -0.519334 -0.012213 -0.007434 0.563324 -0.061097 0.012787 -0.593093 0.987349 -1.301667 0.481712 -0.005223 -0.144482 0.508064 -0.478869 0.317174 0.224595 0.153084 0.093152 -0.738410 -0.006330 0.009860 0.541926 -0.861698 -0.479094 -0.031932 -0.647782 1.023056 0.244761 0.652095 0.082940 0.377310 0.252829 0.394383 -0.301288 0.071372 -0.086876 -0.562258 -0.012426 -0.005992 0.554911 0.544940 -0.057486 0.469829 0.210684 0.549340 -0.470135 -0.067159 0.339203 0.168992 -0.144669 -0.700086 0.333219 -0.099900 0.074437 -0.536978 0.009003 0.008628 0.581416 0.417840 0.191599 -0.586834 -0.041573 -0.689275 1.144360 0.949647 0.350226 0.550364 0.104608 -0.834977 -0.303306 0.072329 -0.480408 -0.999983 0.005803 -0.004571 0.552305 -0.305093 -0.371415 -0.079127 -0.561753 -0.249400 -0.506095 -1.198871 -0.375133 0.411829 -0.558924 -0.797547 -0.291576 0.108216 0.142388 -0.649440 -0.004777 0.007330 0.558864 0.045936 0.347257 0.678592 -0.236675 -0.823111 -0.606541 -0.385752 0.766395 -0.531007 -1.226946 -0.447170 0.564255 0.346251 0.024565 -0.886343 0.006263 -0.000815 0.533762 -0.595007 -0.132466 0.320915 0.346376 0.188124 0.205637 0.442514 0.098789 -0.242953 -0.143686 -0.144110 -0.104082 -0.002776 -0.010907 0.550561 0.153375 0.649483 -0.281397 0.188170 -0.325478 0.643995 -0.833773 0.404214 1.050662 -0.120652 0.094263 -1.225716 -0.000487 -0.005727 0.559877 -0.079561 0.041513 -0.549672 -0.092492 0.633754 0.403833 0.581877 -0.648978 0.000503 0.273105 1.099275 0.736109 0.002000 0.001642 0.563064 -0.411508 -0.547496 0.061217 -0.422181 -0.206377 -0.722007 0.727606 -0.385264 -0.231409 0.234185 0.820006 -1.387742 -0.013851 -0.000265 0.586247 0.166487 0.783739 0.713179 0.397545 -0.528219 0.616654 
0.000583 -0.121213 -0.639585 -0.208400 0.153962 -0.811568 -0.025143 0.022753 -0.239927 -0.035127 0.023600 -0.584306 -0.514041 1.178769 0.023333 -0.615145 -0.348559 0.701877 0.042548 -0.102856 -0.497422 0.005932 0.000697 0.579350 -0.285305 1.139022 -0.600790 0.054008 -1.084876 1.308897 -0.186975 -0.442633 -0.629668 -0.191234 -0.426944 0.949215 0.123471 0.165739 -0.878460 -0.000554 -0.006334 0.571050 -0.190663 -0.551874 -0.287316 -0.206384 0.902503 0.734744 0.167032 0.265536 0.294392 -0.681479 0.247373 -0.377314 -0.107287 0.118476 -0.378139 0.003850 0.024933 0.574162 -0.821731 -0.290531 -0.111779 1.822173 -0.116243 -0.617594 -0.347372 -0.251290 0.855530 0.358476 -0.709260 -0.176637 0.077615 0.020384 -0.272338 -0.007689 0.002652 0.580720 0.317051 -0.544255 -0.322813 -0.161062 0.359401 -0.288540 0.090807 -0.742190 0.063080 0.267551 -0.308997 -0.782973 0.024908 -0.007599 -0.306285 -0.001653 0.002700 0.576513 -0.627654 0.109945 0.028957 -0.930895 0.514664 0.153077 0.774784 -0.594759 -0.118058 -0.314873 0.303057 0.291575 0.020905 0.075759 -0.664720 -0.012434 -0.005517 0.581912 0.774501 -0.393410 -0.491996 -0.525848 -0.355194 -0.036481 -0.073460 0.734697 0.064386 0.873121 0.039030 -0.209673 -0.099805 -0.010072 -0.584035 -0.004578 0.014062 0.570729 0.467053 0.249318 0.047412 -0.515203 -0.141884 -0.316099 -0.572030 -0.235063 -0.488726 -0.406374 -0.089272 -0.925873 -0.192780 0.057452 -0.593049 -0.010213 -0.013611 0.582989 -0.516375 -0.399190 -0.287880 0.178390 -0.435645 -0.478013 -0.213579 0.719299 0.883276 -0.081305 -0.030620 0.245086 -0.026045 -0.078284 -0.584168 0.000461 0.003671 0.556946 -0.513189 1.344607 0.098163 0.318268 -0.295155 -0.817101 0.317892 0.457526 -0.528251 -0.254850 -0.332613 0.170602 -0.536124 0.379614 -1.504684 0.013765 -0.001614 0.580914 0.042624 0.667052 0.236332 0.063288 -0.035690 -0.331418 -0.815564 -0.439123 0.598638 -0.218031 -0.071909 0.073091 -0.016793 0.026758 -0.493676 0.004153 0.019149 0.552500 -0.230386 -0.084812 0.258468 0.947488 -0.318391 0.687418 0.208774 0.273160 0.936923 -0.320741 -0.752000 0.352634 0.099201 0.152524 -0.834270 0.003238 -0.004420 0.550759 1.038882 -1.053775 0.428689 -0.458950 0.529076 -0.885803 -0.104232 0.551222 -0.512763 0.078208 0.395766 0.144659 -0.010379 0.003622 0.561541 -0.188128 -0.436751 -0.288523 0.104225 0.018105 0.516006 -0.082880 -0.292767 -0.584760 1.966028 -0.535054 1.198804 0.002514 -0.014481 0.564039 0.487008 -0.179525 -0.221581 0.170731 0.599619 0.115565 0.611330 -0.402606 0.858341 0.588972 0.802501 -0.246944 -0.008247 0.003145 0.562784 -0.239967 0.620570 0.302309 -0.657121 -0.762574 0.225966 0.292442 0.296666 -0.101995 0.447056 -0.024393 -0.466914 -0.005128 -0.019632 0.571281 -0.123535 0.285149 -0.054321 0.243631 0.020177 -0.510407 
-0.015774 0.052876 -0.461325 0.093753 0.012015 -0.335808 -0.110678 0.005661 -0.347491 0.011271 0.015973 -0.422226 -0.925387 0.056977 0.179427 -0.330804 -0.331221 -0.722581 0.026208 0.086731 -0.412389 0.002167 0.008985 0.587463 -0.367022 -0.224410 -0.498943 1.164730 -0.283766 -0.133434 0.015535 0.381315 -0.618817 -0.392285 0.753341 -0.213819 -0.023357 0.009413 -0.258452 0.004858 0.006297 0.576188 -0.255864 -0.080009 -0.128447 0.727910 0.916054 -0.618529 -0.247448 0.088251 0.279479 0.697102 -0.062496 0.056468 -0.057959 -0.003966 -0.328115 0.000832 0.013487 0.580502 -0.372381 0.601248 -0.640593 0.505599 0.400605 0.480225 0.616648 1.387827 -0.956243 -1.197734 -0.829953 0.159383 0.120606 -0.000732 -0.453777 -0.009539 -0.007990 0.581403 0.525101 0.057536 -0.139923 -0.324170 -0.752373 0.260215 -0.412162 -0.739287 -0.236527 0.505807 0.192892 -0.290665 -0.295151 0.071769 -0.831125 -0.003782 -0.000115 0.603238 0.035345 0.675718 0.316980 -0.119901 -0.271769 0.536542 0.522698 0.375816 -0.133211 0.326353 -0.111213 -0.416045 0.012923 -0.087865 -0.426347 -0.017639 -0.003716 0.564396 0.770390 0.145753 1.003875 -0.833107 -0.303197 -0.468163 -0.034010 -0.038096 0.472129 0.288585 -0.655380 -0.325216 -0.178559 0.111322 -0.518822 -0.009783 0.001027 0.572848 0.197862 0.083873 0.322954 0.782802 0.239119 0.593188 -0.483647 -0.390985 -0.478684 0.297025 0.919603 -0.602391 -0.020723 -0.281648 -0.561599 -0.016737 -0.009847 0.578721 0.577286 -1.298307 0.762008 0.953110 0.603453 0.062725 0.470008 -0.956188 -0.478266 -0.257897 0.362919 0.193817 0.102305 0.122477 -0.747062 0.012262 0.009594 0.574099 -0.190710 0.128888 -0.961932 -0.089721 1.567067 0.481100 -0.574466 0.017116 -0.780690 -0.677365 0.478881 0.264707 -0.115751 0.115417 -0.492515 0.002046 -0.009109 0.594064 -0.080899 0.431504 -0.016288 0.626720 0.109070 -0.089523 -0.468169 -0.572702 -0.093493 -0.181875 -0.493540 0.707663 0.143187 0.008978 -0.514954 -0.005203 0.009467 0.563171 -0.797091 -0.648121 0.619306 0.489060 1.193804 0.043417 -0.413875 -0.510069 0.649791 0.679088 0.112750 -0.824742 -0.062216 -0.035595 -0.259164 -0.005576 0.001743 0.561311 -0.453055 -0.184384 0.067321 -0.042287 -0.204033 1.156917 0.111088 0.694121 -0.313623 0.106973 -1.418131 0.031375 -0.004971 -0.000847 0.593010 0.266149 0.147746 0.294588 -1.051265 -1.525222 -1.032049 -0.634415 1.011350 -0.331585 0.287644 -0.779636 0.373780 0.003506 -0.013453 0.589795 -0.272007 0.367225 1.322356 -0.506233 -0.395861 0.592942 -0.664906 -1.031885 0.153660 0.069346 -0.152655 -0.585548 -0.002502 0.009967 0.600493 0.366009 -0.574643 -0.201620 0.011865 0.245503 -0.524087 0.855926 0.831226 0.112589 -0.111848 0.607398 -0.064337 -0.000593 -0.001349 0.578146 0.111429 -0.163501 -0.431918 0.223383 -0.419885 -0.126671 
0.146420 -0.032757 -0.356692 -0.032808 0.041690 -0.646181 0.031458 0.020030 -0.246042 0.086628 -0.018412 -0.322175 -0.402651 -0.597534 0.136924 -0.106828 -1.078158 -0.894220 -0.020265 -0.000557 -0.130612 0.004140 0.007975 0.572651 0.180541 0.489887 0.365865 -0.114194 -2.127211 0.170736 -0.325613 -0.176797 0.126707 1.043384 -0.574619 0.356784 0.041677 -0.122609 -0.435685 -0.004754 -0.000784 0.551030 0.129010 0.520721 0.102138 -0.930779 0.265050 -0.067997 0.702154 -0.462394 0.009346 -0.208424 0.966683 -0.156330 -0.095718 0.018913 -0.502614 0.000733 0.017102 0.569998 -0.212912 -1.094006 0.337665 -0.269248 -0.042113 -0.069046 0.663139 0.467820 -0.288106 0.915271 0.062256 -1.037059 -0.030284 -0.013997 -0.182734 -0.004282 -0.002399 0.579552 -0.232270 0.159846 -0.249159 0.022449 1.451652 -0.248741 0.317255 -0.419622 -0.764383 -0.064355 -0.875097 -0.462046 0.051421 -0.096125 -0.261847 -0.013815 0.009470 0.561212 -0.445797 0.143591 0.502464 0.488737 -0.046154 0.151245 0.117114 0.367560 -0.138353 -0.260257 -0.532357 -0.230439 -0.027757 -0.002999 -0.307938 -0.006443 -0.008960 0.567785 0.154349 -0.255125 0.592550 1.467770 2.264091 -0.458121 -1.067316 -0.022123 -0.171079 -0.742994 -0.447226 0.562111 0.202574 0.006899 -0.771086 -0.017991 0.002546 0.566685 -0.167225 0.478811 -0.164680 0.657203 0.496039 -0.597590 0.125439 0.562508 -0.161511 -0.268607 0.166934 0.196093 -0.012092 0.065754 -0.356753 -0.013761 -0.002694 0.582398 0.533928 0.443886 0.028615 -0.009668 -0.460799 0.002780 -0.461264 0.766279 -0.033392 -1.542140 1.381552 0.241935 -0.146708 0.022440 -0.445194 0.014687 0.007794 0.560487 0.042153 -0.205098 0.141687 0.115686 0.256934 0.794523 -0.215844 0.041821 -0.712599 0.517549 0.293163 0.179834 -0.026690 0.042840 -0.289537 0.004430 -0.011862 0.565263 0.123802 0.567314 -0.717015 -1.343298 -2.041331 1.000541 0.852258 0.498563 -1.795534 0.994853 -0.007598 -0.145903 -0.057135 -0.026901 -0.374742 0.002364 0.017835 0.594107 0.570414 -0.219046 -0.541912 0.019776 -0.153731 -0.145975 0.979416 -0.676122 0.464658 -0.454988 0.099168 0.472682 0.107413 -0.001231 -0.638783 0.004545 0.007800 0.581687 0.602065 0.210411 -0.123278 -0.425429 0.371595 -0.839018 -0.331187 -0.702746 0.307594 0.786314 0.385233 -0.681678 0.002142 0.003107 0.543276 -0.645205 -0.802761 0.231514 -0.201295 -0.847368 0.258790 -0.007642 -0.057451 -0.765946 -0.768643 -0.185283 0.225511 -0.001411 -0.010375 0.554888 0.249281 -1.304100 0.437860 -0.889434 0.388950 0.688102 -0.446866 -0.116394 1.196760 0.376679 -1.380816 -0.540896 -0.002949 0.012542 0.572909 -0.635358 0.814370 0.133065 0.357228 2.189603 0.313146 0.019064 -0.012620 0.027098 -0.364740 0.126816 -0.092751 -0.003797 -0.006698 0.570748 -0.171656 0.342398 -0.799600 0.427870 -0.063077 0.510974 
0.060182 -0.201012 -0.534744 -0.001545 -0.218845 -0.552252 0.156456 0.115106 -0.684068 0.157359 0.067797 -0.421493 -0.875588 0.999236 -0.598037 -0.053847 0.003379 -0.543588 -0.143341 -0.126683 -0.687481 0.005066 0.015995 0.575272 -0.909893 -0.504977 0.073200 0.569321 -0.354566 -0.026561 0.358550 -0.158510 -0.656242 -0.224312 0.953462 0.433174 0.050448 -0.088811 -0.442537 -0.001458 -0.003003 0.561590 0.121785 -0.359557 0.172968 0.109202 0.323915 -0.208153 -0.600539 0.046277 0.362039 0.743005 0.323798 -0.046919 -0.114732 -0.130476 -0.644760 0.005507 0.012123 0.587683 -0.313724 -0.007050 0.041431 -0.115775 -0.225876 0.101964 0.343255 0.178725 -0.387477 -0.265657 -0.034123 -0.672381 -0.079126 -0.141291 -0.635468 -0.000203 0.004102 0.591982 0.287144 -0.580756 0.637690 -0.431903 -0.194106 -0.563219 -0.255277 0.100672 0.297088 -0.910396 -1.144961 0.342193 -0.033003 -0.014090 -0.382823 -0.011235 0.001033 0.555306 0.650838 1.083250 0.192789 0.132328 -0.346301 -0.804449 -0.537155 -0.905442 0.711299 -1.006218 1.185498 0.040963 0.076774 0.001373 -0.348105 -0.011878 -0.017849 0.559627 -0.129655 0.147524 -0.229178 0.177990 -1.174239 1.119853 0.487902 0.245204 0.127719 -0.555256 -0.991391 0.012361 0.091747 0.050316 -0.648171 -0.012712 0.012096 0.567548 0.050827 0.370128 -0.130241 0.871699 0.228224 0.370289 -1.759131 0.259788 -0.201761 -0.926283 -0.407849 0.129817 0.055409 -0.016615 -0.692751 -0.015092 0.000359 0.564047 0.212737 -0.736242 0.090105 1.097644 -0.093103 0.305023 -0.142412 -0.315895 -0.192697 -0.371452 0.507124 0.428978 -0.082758 -0.068519 -0.553575 0.006615 0.002262 0.574435 -0.058027 0.234640 0.782072 -0.378432 -0.050116 0.073736 -0.404470 1.120819 -0.228175 0.302829 0.481833 -1.268093 -0.041653 -0.318708 -0.648614 0.009897 0.004575 0.553111 0.150547 -0.050834 0.665820 0.094498 -0.094171 -0.808864 -0.419178 0.152405 0.407472 0.393822 -0.440828 -0.601134 -0.163153 0.031398 -0.787066 0.009648 0.012516 0.564553 0.128997 0.590244 -0.101202 0.041457 0.744777 0.668164 1.910892 -0.995307 -0.019919 0.945566 0.127419 -0.207243 -0.063591 -0.021675 -0.464949 0.007257 0.004472 0.572093 0.182375 -0.236064 -0.702261 0.110064 0.521552 -0.500520 -0.619303 0.583988 0.174773 0.751992 1.766318 0.880769 0.000956 -0.001779 0.563308 0.836774 -0.632219 -0.188078 0.064442 -1.174207 0.759079 0.590901 0.119859 0.259311 0.282805 0.683088 -0.723896 -0.009965 -0.012270 0.548386 -0.267327 0.501682 -0.257436 -0.910669 0.606542 0.080449 0.719693 -0.054692 -1.038924 -0.436626 -0.138799 0.915094 -0.011225 0.004952 0.554269 0.426949 -0.018751 0.597329 -0.103578 -0.678793 -0.699309 0.475080 -0.450357 -0.480338 -0.578749 -0.220179 0.491180 -0.007599 -0.008017 0.566234 -0.228537 0.738836 0.953947 0.276409 -1.110779 -0.544433 