-2.137389775127999019e+05
-2.137397970652783115e+05
-2.137418390157345857e+05
-2.137418724470974121e+05
-2.137400595369052899e+05
-2.137429687982687901e+05
-2.137396590820619022e+05
-2.137399420467186137e+05
-2.137392525707806926e+05
-2.137415350455217995e+05
-2.137400117816056882e+05
-2.137401216920613078e+05
-2.137432761994290049e+05
-2.137424762610525941e+05
-2.137390727989049919e+05
-2.137419722596801876e+05
-2.137401020702040114e+05
-2.137395686218957999e+05
-2.137395846638233052e+05
-2.137406219989439996e+05
-2.137409370357547887e+05
-2.137419037544754974e+05
-2.137433358069190872e+05
-2.137413681756519945e+05
-2.137417707108056929e+05
-2.137404936304622097e+05
-2.137416070326952031e+05
-2.137418927505997999e+05
-2.137403698367582110e+05
-2.137413123661908030e+05
-2.137384362197217124e+05
-2.137409683987802127e+05
-2.137410884696946014e+05
-2.137392017825003131e+05
-2.137414217960932874e+05
-2.137393610742716119e+05
-2.137415691690061067e+05
-2.137409950490659976e+05
-2.137405778378602117e+05
-2.137400999523419887e+05
-2.137389681977987930e+05
-2.137404558670470142e+05
-2.137416041451591882e+05
-2.137402498983633122e+05
-2.137387547206777963e+05
-2.137406723152429913e+05
-2.137394258417205128e+05
-2.137421880198364088e+05
-2.137423573520643113e+05
-2.137409339914812008e+05
-2.137417905439593014e+05
-2.137409406702434062e+05
-2.137416874824732076e+05
-2.137420896520419919e+05
-2.137408269632555021e+05
-2.137404332037733111e+05
-2.137419882523551059e+05
-2.137390489576504915e+05
-2.137409904775533942e+05
-2.137405718917644990e+05
-2.137402864912808000e+05
-2.137396443405663886e+05
-2.137428361917498114e+05
-2.137421948470367061e+05
-2.137392560575114039e+05
-2.137391723844089138e+05
-2.137398091920317966e+05
-2.137412943443630065e+05
-2.137402314421056944e+05
-2.137399015289669915e+05
-2.137400621562731103e+05
-2.137406012899919879e+05
-2.137419742291042057e+05
-2.137407212150532869e+05
-2.137400121259657899e+05
-2.137390892313159129e+05
-2.137414890580098145e+05
-2.137393472895284067e+05
-2.137409912129410950e+05
-2.137396801952391106e+05
-2.137395334734946955e+05
-2.137404443034330907e+05
-2.137408565163156891e+05
-2.137411515757525049e+05
-2.137396978178758873e+05
-2.137394626972278056e+05
-2.137418825430652068e+05
-2.137417288411926129e+05
-2.137399979003981862e+05
-2.137413810158880078e+05
-2.137414406690933101e+05
-2.137399548929411103e+05
-2.137387630386537930e+05
-2.137429956824363908e+05
-2.137439224661373009e+05
-2.137420108601175889e+05
-2.137400670329614077e+05
-2.137395087941295060e+05
-2.137434241377944127e+05
-2.137407502260628098e+05
-2.137406711846099934e+05
-2.137396648550932005e+05
-2.137408318953189009e+05
-2.137398503851699061e+05
-2.137406840438939107e+05
-2.137415878634993860e+05
-2.137423011274934979e+05
-2.137418028825534857e+05
-2.137415995140536106e+05
-2.137420648117215023e+05
-2.137436063286259887e+05
-2.137414316940983117e+05
-2.137418252312635886e+05
-2.137429443210841855e+05
-2.137423537254671101e+05
-2.137412386905509047e+05
-2.137400087812785059e+05
-2.137411741224254074e+05
-2.137417537088604877e+05
-2.137412825509489048e+05
-2.137403886583287094e+05
-2.137403070467606012e+05
-2.137407366586024873e+05
-2.137407125689079985e+05
-2.137392409466214012e+05
-2.137398131393151998e+05
-2.137403385395843943e+05
-2.137418690034966858e+05
-2.137410094898756070e+05
-2.137389636661508994e+05
-2.137397196692978905e+05
-2.137434491039674904e+05
-2.137394975331061869e+05
-2.137389649029083084e+05
-2.137391266869702959e+05
-2.137400384487626143e+05
-2.137408824289008044e+05
-2.137433964726600097e+05
-2.137397359195286117e+05
-2.137442264767590968e+05
-2.137427417574971041e+05
-2.137405718694512034e+05
-2.137405857678019092e+05
-2.137402072691443900e+05
-2.137405083802570880e+05
-2.137428023636451107e+05
-2.137415361858147953e+05
-2.137425181845442858e+05
-2.137397756269251113e+05
-2.137398236943391967e+05
-2.137395375036367914e+05
-2.137389905353522045e+05
-2.137384839503949042e+05
-2.137417987465590995e+05
-2.137407426685089013e+05
-2.137399872812915128e+05
-2.137423533217862132e+05
-2.137400830562491028e+05
-2.137411338039973052e+05
-2.137417172077815048e+05
-2.137412388649758941e+05
-2.137437256561254035e+05
-2.137434195930850110e+05
-2.137409969971289975e+05
-2.137413789499996928e+05
-2.137417896072074072e+05
-2.137425578096263052e+05
-2.137405055003401940e+05
-2.137408290775800124e+05
-2.137416030852757103e+05
-2.137428792201596953e+05
-2.137427263641529134e+05
-2.137411889168469934e+05
-2.137397555356714875e+05
-2.137413041688973026e+05
-2.137410590369087877e+05
-2.137403930337832135e+05
-2.137431343309711083e+05
-2.137398036241744121e+05
-2.137406883311835991e+05
-2.137401421697165933e+05
-2.137410706289586087e+05
-2.137434293857819866e+05
-2.137405980663952942e+05
-2.137431907624845044e+05
-2.137385823365570104e+05
-2.137401189228947042e+05
-2.137396708697616123e+05
-2.137394016959705914e+05
-2.137396940031118866e+05
-2.137413870604888943e+05
-2.137416405001131061e+05
-2.137413296386171132e+05
-2.137431935411749873e+05
-2.137388399427884142e+05
-2.137411643619739043e+05
-2.137403571053677879e+05
-2.137400687732654915e+05
-2.137404392799393972e+05
-2.137427926212890889e+05
-2.137410812620792130e+05
-2.137402505085786106e+05
-2.137405800132743898e+05
-2.137431623497174005e+05
-2.137420944000204036e+05
-2.137413892259708082e+05
-2.137429152015013096e+05
-2.137383202199024963e+05
-2.137424885936602077e+05
-2.137404164826495980e+05
-2.137413968863837072e+05
-2.137415308729280951e+05
-2.137396569232466863e+05
-2.137389433241442894e+05
-2.137417657694903901e+05
-2.137420799796193023e+05
-2.137397064489189070e+05
-2.137402008966463036e+05
-2.137414593932469143e+05
-2.137404556250016904e+05
-2.137389810427968041e+05
-2.137404212960714067e+05
-2.137392018034530047e+05
-2.137412835391304106e+05
-2.137427239175773866e+05
-2.137423293337262876e+05
-2.137403537587756873e+05
-2.137399649172069912e+05
-2.137401635160952865e+05
-2.137386504182165081e+05
-2.137414264270626882e+05
-2.137380831124151882e+05
-2.137404338527648069e+05
-2.137403004629660863e+05
-2.137398356715661066e+05
-2.137441799048827088e+05
-2.137426436910688062e+05
-2.137432703601380053e+05
-2.137409097454572911e+05
-2.137398486142529873e+05
-2.137428469677302055e+05
-2.137415095472300018e+05
-2.137431897551190923e+05
-2.137401508017118904e+05
-2.137419506614601123e+05
-2.137421069999799074e+05
-2.137398457328394870e+05
-2.137398349768595072e+05
-2.137414278088569117e+05
-2.137415968935973069e+05
-2.137435497746613983e+05
-2.137402456327065884e+05
-2.137422720692724106e+05
-2.137398203647542105e+05
-2.137402722355085134e+05
-2.137426734634526947e+05
-2.137400511899490957e+05
-2.137394766033338092e+05
-2.137414904366745905e+05
-2.137405806168227864e+05
-2.137401755262480001e+05
-2.137405192117487022e+05
-2.137390235307886032e+05
-2.137395504928551090e+05
-2.137419155106098915e+05
-2.137416471766984032e+05
-2.137409701086076093e+05
-2.137436435120305978e+05
-2.137422429442472057e+05
-2.137393902084124857e+05
-2.137399062701425864e+05
-2.137401353226519132e+05
-2.137433735914232093e+05
-2.137398257512476994e+05
-2.137414340194471879e+05
-2.137403934034499107e+05
-2.137416966905336012e+05
-2.137412949971641065e+05
-2.137418594674030028e+05
-2.137401767733457964e+05
-2.137414616585946933e+05
-2.137405662312523054e+05
-2.137419758608347911e+05
-2.137401953162717109e+05
-2.137418191534646903e+05
-2.137429694918869063e+05
-2.137403121924335137e+05
-2.137412038858296000e+05
-2.137376408534020884e+05
-2.137415002159019932e+05
-2.137419295115476125e+05
-2.137402940235281130e+05
-2.137414510764954030e+05
-2.137405159320964885e+05
-2.137394018882189994e+05
-2.137421481924376858e+05
-2.137419540182565106e+05
-2.137403779350022960e+05
-2.137414348395983106e+05
-2.137436625102029066e+05
-2.137392291687178949e+05
-2.137405748175325862e+05
-2.137421007017689117e+05
-2.137401723332641996e+05
-2.137416843757494062e+05
-2.137399591624072928e+05
-2.137434354033076088e+05
-2.137404799961978861e+05
-2.137396087181429903e+05
-2.137427242679239134e+05
-2.137411846019377117e+05
-2.137409415857704007e+05
-2.137383869862997963e+05
-2.137404263983420969e+05
-2.137424646402948129e+05
-2.137392079250621027e+05
-2.137410999103130889e+05
-2.137417264352980128e+05
-2.137400306173260906e+05
-2.137433469548790890e+05
-2.137404611491849064e+05
-2.137388089822193142e+05
-2.137403026420538081e+05
-2.137407649471496115e+05
-2.137421125508302066e+05
-2.137395227556106111e+05
-2.137414354653240880e+05
-2.137402231691644993e+05
-2.137398936001138063e+05
-2.137432560862702085e+05
-2.137395415745959908e+05
-2.137429938191368128e+05
-2.137394071400162065e+05
-2.137399326431443915e+05
-2.137381205986824934e+05
-2.137394062606802909e+05
-2.137386616521643882e+05
-2.137426649250645132e+05
-2.137408297311975039e+05
-2.137417100017986959e+05
-2.137421602778299130e+05
-2.137389989929225994e+05
-2.137398809653237986e+05
-2.137408446458934050e+05
-2.137383134634518065e+05
-2.137419007843529107e+05
-2.137402255475755956e+05
-2.137401621054571006e+05
-2.137413635514852940e+05
-2.137428764220130106e+05
-2.137397462499224930e+05
-2.137403948015708011e+05
-2.137387519509670092e+05
-2.137400779362911126e+05
-2.137405030324037070e+05
-2.137396648439365090e+05
-2.137422399912677938e+05
-2.137410838492015901e+05
-2.137391064382987970e+05
-2.137422637930657947e+05
-2.137410978168052097e+05
-2.137412526521680993e+05
-2.137419056301563105e+05
-2.137391986548237037e+05
-2.137396008355492086e+05
-2.137411553154131107e+05
-2.137400076511896914e+05
-2.137406919919310894e+05
-2.137396182237598987e+05
-2.137440436917667976e+05
-2.137407107154045952e+05
-2.137409833438167989e+05
-2.137432256459828059e+05
-2.137406599263077951e+05
-2.137420726796211966e+05
-2.137416771349360934e+05
-2.137407046366533905e+05
-2.137415843046584050e+05
-2.137427567532829125e+05
-2.137413858765214973e+05
-2.137426098063642858e+05
-2.137397848283186904e+05
-2.137406195266536961e+05
-2.137390682558282861e+05
-2.137424707578221860e+05
-2.137411472642447043e+05
-2.137438186563380877e+05
-2.137413051195270091e+05
-2.137406853923540912e+05
-2.137411872183122905e+05
-2.137433044626695919e+05
-2.137416984624029137e+05
-2.137405975074734888e+05
-2.137426050794747134e+05
-2.137392881820474868e+05
-2.137410256338457984e+05
-2.137401056508139882e+05
-2.137393695333386131e+05
-2.137403387936025974e+05
-2.137406674158331880e+05
-2.137408539857929864e+05
-2.137406032481231960e+05
-2.137397617221797118e+05
-2.137435370370123128e+05
-2.137397657413012057e+05
-2.137414920467722986e+05
-2.137399809618555882e+05
-2.137417705984227068e+05
-2.137417597012156039e+05
-2.137402993618574983e+05
-2.137404949342955952e+05
-2.137408577715767897e+05
-2.137420811835869972e+05
-2.137409662137060950e+05
-2.137387976626915915e+05
-2.137418397560202866e+05
-2.137419945632193994e+05
-2.137394138832693861e+05
-2.137424485370056063e+05
-2.137404133942934859e+05
-2.137393561816647125e+05
-2.137425663354973076e+05
-2.137398343501813069e+05
-2.137402413467775041e+05
-2.137420699918167084e+05
-2.137438243715451972e+05
-2.137432964757200098e+05
-2.137410420635355986e+05
-2.137405693612417963e+05
-2.137408786779475049e+05
-2.137405425187076034e+05
-2.137405815575204033e+05
-2.137416983538295026e+05
-2.137402433212356118e+05
-2.137405855747371097e+05
-2.137411817154900928e+05
-2.137406481055463082e+05
-2.137412657243811991e+05
-2.137393878817030927e+05
-2.137398720455679868e+05
-2.137418220935188001e+05
-2.137410611534102063e+05
-2.137404849503026053e+05
-2.137397436345003080e+05
-2.137394387271273881e+05
-2.137402519043865905e+05
-2.137386102415597124e+05
-2.137423363535832032e+05
-2.137413075914091896e+05
-2.137408048625770898e+05
-2.137393582358520944e+05
-2.137431078040889988e+05
-2.137402990421236900e+05
-2.137409086046199955e+05
-2.137402726508903143e+05
-2.137400818364988081e+05
-2.137409556628999126e+05
-2.137395962473016116e+05
-2.137402799717051967e+05
-2.137422950665657991e+05
-2.137415224175346084e+05
-2.137429460687352985e+05
-2.137402333092147892e+05
-2.137417195135380898e+05
-2.137435468735196046e+05
-2.137405891535783885e+05
-2.137402150962270098e+05
-2.137420840451362019e+05
-2.137414422166046861e+05
-2.137406435592042108e+05
-2.137396188048589975e+05
-2.137428298851033032e+05
-2.137405784201839124e+05
-2.137399732081076945e+05
-2.137432255813558004e+05
-2.137428775674763019e+05
-2.137413721143637958e+05
-2.137435199843179143e+05
-2.137393549130698957e+05
-2.137414683476971986e+05
-2.137429156889932929e+05
-2.137414120273423032e+05
-2.137396601826263068e+05
-2.137427582561676973e+05
-2.137427169382653956e+05
-2.137432440860496135e+05
-2.137393268865683931e+05
-2.137411013895238866e+05
-2.137409988291354966e+05
-2.137419927806016058e+05
-2.137391880456490908e+05
-2.137402158337915898e+05
-2.137377000395240029e+05
-2.137422092275730975e+05
-2.137426754923335975e+05
-2.137417049651074922e+05
-2.137404257931608881e+05
-2.137402155834469013e+05
-2.137429894732066023e+05
-2.137436186321174901e+05
-2.137411018405526120e+05
-2.137413469495475001e+05
-2.137411992306419997e+05
-2.137404924758831039e+05
-2.137417943275663129e+05
-2.137398208504774084e+05
-2.137410700135731022e+05
-2.137414602987057006e+05
-2.137403278548982053e+05
-2.137403716936630954e+05
-2.137398096148966870e+05
-2.137399866682190041e+05
-2.137397941008700873e+05
-2.137413208628096036e+05
-2.137424663916194986e+05
-2.137433434239299095e+05
-2.137394984270001878e+05
-2.137424009648386855e+05
-2.137388903789535107e+05
-2.137419004798574897e+05
-2.137431577685447119e+05
-2.137417149957680085e+05
-2.137390600612559065e+05
-2.137402110956092947e+05
-2.137412796397389902e+05
-2.137405617907625856e+05
-2.137397208215639985e+05
-2.137399168575480871e+05
-2.137400822540574882e+05
-2.137395193555481092e+05
-2.137399224381948879e+05
-2.137399407390755077e+05
-2.137389798531151027e+05
-2.137419308600077056e+05
-2.137411288904375979e+05
-2.137407401394828048e+05
-2.137414411774018954e+05
-2.137395405285904126e+05
-2.137408602512142097e+05
-2.137396561192864028e+05
-2.137388133047476877e+05
-2.137411691619261110e+05
-2.137386817627382115e+05
-2.137404237056394923e+05
-2.137424491530713858e+05
-2.137399585253887926e+05
-2.137415802837682131e+05
-2.137400682461810065e+05
-2.137420044051689911e+05
-2.137403956112455926e+05
-2.137396203670646064e+05
-2.137410965154207079e+05
-2.137434402609478857e+05
-2.137393188539037073e+05
-2.137409114948771894e+05
-2.137401983282997971e+05
-2.137404981651032867e+05
-2.137420436505161924e+05
-2.137415470204357116e+05
-2.137435591964671912e+05
-2.137406681645544886e+05
-2.137416761267542897e+05
-2.137415350725970929e+05
-2.137390773653835058e+05
-2.137434839205257886e+05
-2.137412758931395074e+05
-2.137419904865458084e+05
-2.137414706565832021e+05
-2.137407509422664007e+05
-2.137423688518675917e+05
-2.137417053332774958e+05
-2.137396482213180861e+05
-2.137411341180166055e+05
-2.137419183679413982e+05
-2.137411350433398038e+05
-2.137404359009657055e+05
-2.137411249462834094e+05
-2.137406794957830862e+05
-2.137399865687614074e+05
-2.137424506907867035e+05
-2.137409436252636951e+05
-2.137431613762300985e+05
-2.137396363504875917e+05
-2.137400134404117125e+05
-2.137401111622079043e+05
-2.137388550909580081e+05
-2.137406173262051016e+05
-2.137394818680564058e+05
-2.137399770087217039e+05
-2.137425187767999887e+05
-2.137401372718033963e+05
-2.137409701816702145e+05
-2.137403981029920978e+05
-2.137414613210374082e+05
-2.137397756505990110e+05
-2.137402506975617143e+05
-2.137399921989328868e+05
-2.137413575746408023e+05
-2.137442318432522879e+05
-2.137407628283351951e+05
-2.137430731947454042e+05
-2.137408528797863110e+05
-2.137415932358430000e+05
-2.137410085539399879e+05
-2.137390051971182984e+05
-2.137416817487624066e+05
-2.137404691151815932e+05
-2.137397308409319085e+05
-2.137413477145956131e+05
-2.137410617924696126e+05
-2.137411958167016855e+05
-2.137418853172659001e+05
-2.137394558459454856e+05
-2.137419693813959893e+05
-2.137426233636203106e+05
-2.137415554057600093e+05
-2.137390170689010993e+05
-2.137406255368322018e+05
-2.137406728617835906e+05
-2.137418432249276084e+05
-2.137392298928127857e+05
-2.137398547139569127e+05
-2.137422182769911014e+05
-2.137414661703782913e+05
-2.137399490468472068e+05
-2.137417676204087038e+05
-2.137394193620095903e+05
-2.137403097099387960e+05
-2.137425979963513964e+05
-2.137426788081768027e+05
-2.137412670214117970e+05
-2.137427729633768031e+05
-2.137417564305432024e+05
-2.137393916172818863e+05
-2.137405231104597915e+05
-2.137417854957033123e+05
-2.137420235206224024e+05
-2.137405038815349108e+05
-2.137419500056657125e+05
-2.137425370687009126e+05
-2.137422367139286944e+05
-2.137413677561884979e+05
-2.137417408948834927e+05
-2.137435136595758086e+05
-2.137394972139167076e+05
-2.137395510725936911e+05
-2.137408651598758879e+05
-2.137395173243544123e+05
-2.137414432472359040e+05
-2.137406204405479948e+05
-2.137427237752618094e+05
-2.137389747912533057e+05
-2.137376916799145984e+05
-2.137391044066968898e+05
-2.137437270015923132e+05
-2.137429645278500975e+05
-2.137402658538946125e+05
-2.137396505107478879e+05
-2.137392170056372124e+05
-2.137415067904446041e+05
-2.137402629290790064e+05
-2.137405840366136108e+05
-2.137391192660176021e+05
-2.137406224252104003e+05
-2.137420706255697878e+05
-2.137393454315350973e+05
-2.137406093315003091e+05
-2.137399968624199973e+05
-2.137385757312655041e+05
-2.137384013409854088e+05
-2.137398693350419926e+05
-2.137407886415986868e+05
-2.137416746057739074e+05
-2.137412536539552093e+05
-2.137415656591457082e+05
-2.137420192699320032e+05
-2.137425593414912000e+05
-2.137389678909904032e+05
-2.137419656760217913e+05
-2.137416697708551947e+05
-2.137400317568028113e+05
-2.137386465529754059e+05
-2.137409409638541983e+05
-2.137405126376142143e+05
-2.137410562233877135e+05
-2.137411242971559113e+05
-2.137424500676459866e+05
-2.137410493737378856e+05
-2.137405986673586885e+05
-2.137398236041333876e+05
-2.137399194721539970e+05
-2.137427295287009038e+05
-2.137411937883651117e+05
-2.137438923876252957e+05
-2.137421804420099943e+05
-2.137405389619075868e+05
-2.137418032533086080e+05
-2.137408216125449107e+05
-2.137395877993912145e+05
-2.137399309458342905e+05
-2.137411840597508999e+05
-2.137387205554239918e+05
-2.137403562528351031e+05
-2.137411774156831962e+05
-2.137406509234211990e+05
-2.137412592223568936e+05
-2.137425192286451056e+05
-2.137397918540260871e+05
-2.137412125495261862e+05
-2.137423729957531905e+05
-2.137416274099404982e+05
-2.137400826986914908e+05
-2.137433500086767890e+05
-2.137425218354956887e+05
-2.137412706935880997e+05
-2.137433529456015094e+05
-2.137408959184004052e+05
-2.137435959921095055e+05
-2.137424394294912927e+05
-2.137441523494102003e+05
-2.137432870982688037e+05
-2.137389469801298983e+05
-2.137412401508498879e+05
-2.137391171096513863e+05
-2.137398485494898923e+05
-2.137435349854099914e+05
-2.137410633009326993e+05
-2.137403321493988915e+05
-2.137434236234991986e+05
-2.137388798522294092e+05
-2.137422908709784970e+05
-2.137393812222609122e+05
-2.137413586893551983e+05
-2.137404414500473067e+05
-2.137413954277175071e+05
-2.137406182266297983e+05
-2.137417466860103887e+05
-2.137408234580210119e+05
-2.137428961370692996e+05
-2.137414469119290879e+05
-2.137424445255032915e+05
-2.137411230835281021e+05
-2.137414783553640882e+05
-2.137434935898192052e+05
-2.137398687698614958e+05
-2.137404493387636903e+05
-2.137411856916176039e+05
-2.137421833329474903e+05
-2.137432893483781954e+05
-2.137420550146707101e+05
-2.137424037930539926e+05
-2.137406600638612872e+05
-2.137430051158069982e+05
-2.137391651087650098e+05
-2.137405442094870086e+05
-2.137412584208456101e+05
-2.137404375408597989e+05
-2.137406635998447018e+05
-2.137412512646596006e+05
-2.137411394170256099e+05
-2.137422416317060997e+05
-2.137395512325965974e+05
-2.137413487736626994e+05
-2.137402968599066953e+05
-2.137419135709824914e+05
-2.137411962961663085e+05
-2.137410686089213996e+05
-2.137410514535041002e+05
-2.137394147494077915e+05
-2.137410131300785870e+05
-2.137402328926085029e+05
-2.137406475894823961e+05
-2.137419298793094058e+05
-2.137401118872551888e+05
-2.137417704922982084e+05
-2.137411314511648961e+05
-2.137396774047116050e+05
-2.137411607570096967e+05
-2.137409200369390019e+05
-2.137399543729315046e+05
-2.137421370071980928e+05
-2.137399791284886014e+05
-2.137410417404003965e+05
-2.137411604658477881e+05
-2.137438784826078045e+05
-2.137406216558084125e+05
-2.137412736216692138e+05
-2.137412851938547101e+05
-2.137406988010359055e+05
-2.137411418280903017e+05
-2.137391640257517865e+05
-2.137403817976583086e+05
-2.137387430064489017e+05
-2.137420383815758105e+05
-2.137417217711306876e+05
-2.137391976228319982e+05
-2.137417036320217885e+05
-2.137393901839223108e+05
-2.137398868803984951e+05
-2.137395037522682105e+05
-2.137407185552764859e+05
-2.137390152304999938e+05
-2.137393290727309941e+05
-2.137424895169424999e+05
-2.137410431585217011e+05
-2.137398092600603122e+05
-2.137417335905315995e+05
-2.137410468067520123e+05
-2.137383203548709862e+05
-2.137401553807076998e+05
-2.137405745727661997e+05
-2.137413173181186139e+05
-2.137394362012307101e+05
-2.137410188563062984e+05
-2.137394265558833140e+05
-2.137401481416631141e+05
-2.137391249721088971e+05
-2.137420987874479906e+05
-2.137428608962855069e+05
-2.137394911120357865e+05
-2.137438340724038135e+05
-2.137412810615338094e+05
-2.137390107735473139e+05
-2.137395011187503114e+05
-2.137394451056119869e+05
-2.137421492950429965e+05
-2.137406794570068887e+05
-2.137373555512875027e+05
-2.137420995462374121e+05
-2.137428951837184140e+05
-2.137420558467947994e+05
-2.137422356858825951e+05
-2.137402861730435980e+05
-2.137398567601169925e+05
-2.137410470965532877e+05
-2.137396824857573956e+05
-2.137413326715980074e+05
-2.137391998589274881e+05
-2.137401769855945895e+05
-2.137383410215094045e+05
-2.137435416070283100e+05
-2.137392045247275091e+05
-2.137403689604155952e+05
-2.137438461142577871e+05
-2.137411907394654991e+05
-2.137401338461622072e+05
-2.137400505029977066e+05
-2.137431829099591996e+05
-2.137417150639326137e+05
-2.137405911651799979e+05
-2.137414124291184125e+05
-2.137433267358680896e+05
-2.137413253328237042e+05
-2.137409809269017132e+05
-2.137425253139270062e+05
-2.137415723158667097e+05
-2.137397617608199071e+05
-2.137408776937116927e+05
-2.137399417858973902e+05
-2.137405650180327939e+05
-2.137392021554322855e+05
-2.137419226670681091e+05
-2.137392678956881864e+05
-2.137421427026769088e+05
-2.137389166124968906e+05
-2.137433624037344998e+05
-2.137425470522858086e+05
-2.137395040122728969e+05
-2.137395284370756126e+05
-2.137440567758168036e+05
-2.137406038353448093e+05
-2.137400587069579924e+05
-2.137399433085104974e+05
-2.137407666535756143e+05
-2.137408845475791895e+05
-2.137414307602035988e+05
-2.137420526679607865e+05
-2.137418818331201910e+05
-2.137395995970230142e+05
-2.137424139781391132e+05
-2.137408098736896936e+05
-2.137390330006224976e+05
-2.137435567546536040e+05
-2.137430646190774860e+05
-2.137428762069070945e+05
-2.137412189352218120e+05
-2.137398968468401872e+05
-2.137406027075689926e+05
-2.137392773530049017e+05
-2.137410229917565011e+05
-2.137405286483847012e+05
-2.137405603206674859e+05
-2.137420320379218028e+05
-2.137416473960221047e+05
-2.137378922169338039e+05
-2.137393457997051009e+05
-2.137400865402586933e+05
-2.137416151997841080e+05
-2.137417610925335903e+05
-2.137422292386892077e+05
-2.137388333223946101e+05
-2.137394945195814071e+05
-2.137424910515284864e+05
-2.137431945558876032e+05
-2.137412492262547894e+05
-2.137407182992174057e+05
-2.137427004957862955e+05
-2.137405562137892994e+05
-2.137410976890476886e+05
-2.137404531954331906e+05
-2.137426183016225114e+05
-2.137401143772329960e+05
-2.137405992592062976e+05
-2.137413483331103926e+05
-2.137432651083407982e+05
-2.137406817038508889e+05
-2.137387671130143863e+05
-2.137416487278834102e+05
-2.137428961414230871e+05
-2.137411016734747100e+05
-2.137390274874600000e+05
-2.137404030687976046e+05
-2.137418485499235103e+05
-2.137408215090055892e+05
-2.137384856980459881e+05
-2.137395063154445088e+05
-2.137396397721832036e+05
-2.137421334909430007e+05
-2.137391296272964973e+05
-2.137408407011950912e+05
-2.137412408443320019e+05
-2.137411180081967905e+05
-2.137419288382018858e+05
-2.137391885164061096e+05
-2.137412284877783968e+05
-2.137396051807990880e+05
-2.137412205710342096e+05
-2.137396405749190017e+05
-2.137389016198404133e+05
-2.137386435061166994e+05
-2.137404516828884080e+05
-2.137420071550155117e+05
-2.137430575382671086e+05
-2.137392264981926128e+05
-2.137391153602314880e+05
-2.137419999688969983e+05
-2.137401194267134997e+05
-2.137420693882681953e+05
-2.137403550986642076e+05
-2.137409416460435896e+05
-2.137405018676203908e+05
-2.137397142062043131e+05
-2.137398505861258891e+05
-2.137402274852982955e+05
-2.137405989968886133e+05
-2.137420875037031947e+05
-2.137392893873756984e+05
-2.137407214443091943e+05
-2.137430448860618053e+05
-2.137403461307442922e+05
-2.137402370432970929e+05
-2.137426675565413898e+05
-2.137401207793914073e+05
-2.137393005689418060e+05
-2.137433187297345139e+05
-2.137425500192790059e+05
-2.137405315240838099e+05
-2.137395698849122855e+05
-2.137416733457508089e+05
-2.137418384312340932e+05
-2.137391927904982003e+05
-2.137415138396898110e+05
-2.137405083926382067e+05
-2.137389544968667033e+05
-2.137408555768425867e+05
-2.137393222316529136e+05
-2.137397160213397001e+05
-2.137432999767368019e+05
-2.137399465229912894e+05
-2.137393390848877898e+05
-2.137392947130517859e+05
-2.137416066235720937e+05
-2.137416803500971873e+05
-2.137390329599415127e+05
-2.137399344995050051e+05
-2.137399899277347140e+05
-2.137420306359913084e+05
-2.137401730244332866e+05
-2.137398943114193971e+05
-2.137412812623537902e+05
-2.137393316673364898e+05
-2.137397895082685864e+05
-2.137401065176326956e+05
-2.137400504906165006e+05
-2.137407641298556991e+05
-2.137402997146531125e+05
-2.137381071023799886e+05
-2.137389020691004116e+05
-2.137413216768380953e+05
-2.137423908265572099e+05
